Compiler and run-time data
===============================================================================
RASPA 3.0.29

Random seed: 4015558127

Compiled as a 64-bits application
Compiler: gcc Clang 19.1.7 (https://github.com/conda-forge/clangdev-feedstock 3c5e7de432e909e225d8040e72a44724afb0c446)
Compile Date = May  8 2026, Compile Time = 02:11:23

2026-05-17 14:27:13.468053389
Simulation started on Sun, May 17
The start time was 14:27:00

Hostname:    wselimited-3
OS type:     Linux on x86_64
OS release:  6.8.0-111-generic
OS version:  #111~22.04.1-Ubuntu SMP PREEMPT_DYNAMIC Tue Apr 14 17:13:45 UTC 


Mutual consistent basic set of units:
===============================================================================

Unit of temperature: 1 [K]
Unit of length:      1e-10 [m]
Unit of time:        1e-12 [s]
Unit of mass:        1.6605402e-27 [kg]
Unit of charge:      1.60217733e-19 [C/particle]


Boltzmann constant (internal units):          0.8314464919307584 [-]
represents conversion from energy (internal units) to temperature (in Kelvin)

Derived units and their conversion factors:
===============================================================================

Unit of energy:                           1.6605402000000002e-23 [J]
Unit of energy:                           10.000008872307538 [J.mol⁻¹]
Unit of velocity:                         100 [m.s⁻¹]
Unit of force:                            1.6605402000000002e-13 [N]
Unit of diffusion:                        1e-08 [m².s⁻¹]
Unit of acceleration:                     1e-08 [m².s⁻¹]
Unit of torque:                           1.6605402000000002e-23 [N.m]
Unit of pressure:                         16605402 [Pa]
Unit of volume:                           1e-30 [m³]
Unit of density:                          1660.5402 [kg.m⁻³]
Unit of dynamic viscosity:                1.6605401999999997e-05 [N.s.m⁻²]
Unit of enthalpy:                         1.6605402000000002e-23 [J]
Unit of polarizability:                   1.5458657349975198e-35 [-]
Unit of Coulomb potential:                167101.08000665612 [K]
Unit of dielectric constant:              1.5458657349975193e-05 [s².C².kg⁻¹.m⁻³]
Unit of dipole moment:                    1.60217733e-29 [C.m]
Unit of Debye:                            4.803206799099162 [C.m]
Unit of electric potential:               0.00010364272224473431 [V]
Unit of electric field:                   1036427.222447343 [V.m⁻¹]
Unit of isothermal compressibility:       6.02213665167516e-08 [Pa⁻¹]
Unit of heat capacity:                    10.000008872307538 [J.mol⁻¹.K⁻¹]
Unit of volumetric expansion coefficient: 1 [K⁻¹]


Internal conversion factors:
===============================================================================

Energy (internal units) to Kelvin:      1.202724284692786 [-]
Kelvin to energy (internal units):      0.8314457542157567 [-]


System definitions
===============================================================================

Temperature:          323 [K]
Beta:                 0.0037236012927407604 [-]
Pressure:             0 [Pa]
Helium void fraction: 1 [-]

Box:      29.63480  14.81740  14.81740
           0.00000  25.66449   8.55483
           0.00000   0.00000  24.19671
Lengths:  29.63480  29.63480  29.63480
Angles:   60.00000  60.00000  60.00000
Triclinic boundary conditions
Perpendicular widths:   24.19671  24.19671  24.19671




Property measurement settings
===============================================================================




Pseudo-atoms
===============================================================================

  0 - C1       framework-atom: true
  1 - C2       framework-atom: true
  2 - C3       framework-atom: true
  3 - C4       framework-atom: true
  4 - C5       framework-atom: true
  5 - C6       framework-atom: true
  6 - C7       framework-atom: true
  7 - C8       framework-atom: true
  8 - C9       framework-atom: true
  9 - C10      framework-atom: true
 10 - C11      framework-atom: true
 11 - C12      framework-atom: true
 12 - C13      framework-atom: true
 13 - C14      framework-atom: true
 14 - C15      framework-atom: true
 15 - C16      framework-atom: true
 16 - C17      framework-atom: true
 17 - C18      framework-atom: true
 18 - C19      framework-atom: true
 19 - C20      framework-atom: true
 20 - C21      framework-atom: true
 21 - C22      framework-atom: true
 22 - C23      framework-atom: true
 23 - C24      framework-atom: true
 24 - C25      framework-atom: true
 25 - C26      framework-atom: true
 26 - C27      framework-atom: true
 27 - C28      framework-atom: true
 28 - C29      framework-atom: true
 29 - C30      framework-atom: true
 30 - C31      framework-atom: true
 31 - C32      framework-atom: true
 32 - C33      framework-atom: true
 33 - C34      framework-atom: true
 34 - C35      framework-atom: true
 35 - C36      framework-atom: true
 36 - C37      framework-atom: true
 37 - C38      framework-atom: true
 38 - C39      framework-atom: true
 39 - C40      framework-atom: true
 40 - C41      framework-atom: true
 41 - C42      framework-atom: true
 42 - C43      framework-atom: true
 43 - C44      framework-atom: true
 44 - C45      framework-atom: true
 45 - C46      framework-atom: true
 46 - C47      framework-atom: true
 47 - C48      framework-atom: true
 48 - H1       framework-atom: true
 49 - H2       framework-atom: true
 50 - H3       framework-atom: true
 51 - H4       framework-atom: true
 52 - H5       framework-atom: true
 53 - H6       framework-atom: true
 54 - H7       framework-atom: true
 55 - H8       framework-atom: true
 56 - H9       framework-atom: true
 57 - H10      framework-atom: true
 58 - H11      framework-atom: true
 59 - H12      framework-atom: true
 60 - H13      framework-atom: true
 61 - H14      framework-atom: true
 62 - H15      framework-atom: true
 63 - H16      framework-atom: true
 64 - H17      framework-atom: true
 65 - H18      framework-atom: true
 66 - H19      framework-atom: true
 67 - H20      framework-atom: true
 68 - H21      framework-atom: true
 69 - H22      framework-atom: true
 70 - H23      framework-atom: true
 71 - H24      framework-atom: true
 72 - H25      framework-atom: true
 73 - H26      framework-atom: true
 74 - H27      framework-atom: true
 75 - H28      framework-atom: true
 76 - O1       framework-atom: true
 77 - O2       framework-atom: true
 78 - O3       framework-atom: true
 79 - O4       framework-atom: true
 80 - O5       framework-atom: true
 81 - O6       framework-atom: true
 82 - O7       framework-atom: true
 83 - O8       framework-atom: true
 84 - O9       framework-atom: true
 85 - O10      framework-atom: true
 86 - O11      framework-atom: true
 87 - O12      framework-atom: true
 88 - O13      framework-atom: true
 89 - O14      framework-atom: true
 90 - O15      framework-atom: true
 91 - O16      framework-atom: true
 92 - O17      framework-atom: true
 93 - O18      framework-atom: true
 94 - O19      framework-atom: true
 95 - O20      framework-atom: true
 96 - O21      framework-atom: true
 97 - O22      framework-atom: true
 98 - O23      framework-atom: true
 99 - O24      framework-atom: true
100 - O25      framework-atom: true
101 - O26      framework-atom: true
102 - O27      framework-atom: true
103 - O28      framework-atom: true
104 - O29      framework-atom: true
105 - O30      framework-atom: true
106 - O31      framework-atom: true
107 - O32      framework-atom: true
108 - Zr1      framework-atom: true
109 - Zr2      framework-atom: true
110 - Zr3      framework-atom: true
111 - Zr4      framework-atom: true
112 - Zr5      framework-atom: true
113 - Zr6      framework-atom: true
114 - C_co2    framework-atom: false
115 - O_co2    framework-atom: false

  0 - C1       mass: 12.01070, charge: -0.09706
  1 - C2       mass: 12.01070, charge: -0.09706
  2 - C3       mass: 12.01070, charge:  0.69356
  3 - C4       mass: 12.01070, charge: -0.03199
  4 - C5       mass: 12.01070, charge: -0.09706
  5 - C6       mass: 12.01070, charge:  0.69356
  6 - C7       mass: 12.01070, charge: -0.03199
  7 - C8       mass: 12.01070, charge: -0.09706
  8 - C9       mass: 12.01070, charge:  0.69356
  9 - C10      mass: 12.01070, charge: -0.03199
 10 - C11      mass: 12.01070, charge: -0.09706
 11 - C12      mass: 12.01070, charge: -0.03195
 12 - C13      mass: 12.01070, charge:  0.69356
 13 - C14      mass: 12.01070, charge: -0.09706
 14 - C15      mass: 12.01070, charge:  0.69355
 15 - C16      mass: 12.01070, charge: -0.09706
 16 - C17      mass: 12.01070, charge: -0.09701
 17 - C18      mass: 12.01070, charge: -0.09706
 18 - C19      mass: 12.01070, charge: -0.09706
 19 - C20      mass: 12.01070, charge: -0.09706
 20 - C21      mass: 12.01070, charge: -0.09702
 21 - C22      mass: 12.01070, charge: -0.09705
 22 - C23      mass: 12.01070, charge: -0.09701
 23 - C24      mass: 12.01070, charge: -0.03191
 24 - C25      mass: 12.01070, charge:  0.69356
 25 - C26      mass: 12.01070, charge: -0.09706
 26 - C27      mass: 12.01070, charge: -0.03195
 27 - C28      mass: 12.01070, charge: -0.09701
 28 - C29      mass: 12.01070, charge: -0.03191
 29 - C30      mass: 12.01070, charge: -0.09701
 30 - C31      mass: 12.01070, charge:  0.69355
 31 - C32      mass: 12.01070, charge: -0.03191
 32 - C33      mass: 12.01070, charge: -0.09706
 33 - C34      mass: 12.01070, charge:  0.69355
 34 - C35      mass: 12.01070, charge: -0.03191
 35 - C36      mass: 12.01070, charge: -0.09701
 36 - C37      mass: 12.01070, charge: -0.09701
 37 - C38      mass: 12.01070, charge: -0.03191
 38 - C39      mass: 12.01070, charge:  0.69356
 39 - C40      mass: 12.01070, charge:  0.69355
 40 - C41      mass: 12.01070, charge: -0.03195
 41 - C42      mass: 12.01070, charge:  0.69356
 42 - C43      mass: 12.01070, charge: -0.09705
 43 - C44      mass: 12.01070, charge: -0.03195
 44 - C45      mass: 12.01070, charge:  0.69355
 45 - C46      mass: 12.01070, charge: -0.09702
 46 - C47      mass: 12.01070, charge: -0.09701
 47 - C48      mass: 12.01070, charge: -0.09702
 48 - H1       mass:  1.00794, charge:  0.10839
 49 - H2       mass:  1.00794, charge:  0.10839
 50 - H3       mass:  1.00794, charge:  0.10839
 51 - H4       mass:  1.00794, charge:  0.50442
 52 - H5       mass:  1.00794, charge:  0.10839
 53 - H6       mass:  1.00794, charge:  0.50435
 54 - H7       mass:  1.00794, charge:  0.50442
 55 - H8       mass:  1.00794, charge:  0.10839
 56 - H9       mass:  1.00794, charge:  0.10839
 57 - H10      mass:  1.00794, charge:  0.10839
 58 - H11      mass:  1.00794, charge:  0.10839
 59 - H12      mass:  1.00794, charge:  0.10839
 60 - H13      mass:  1.00794, charge:  0.10839
 61 - H14      mass:  1.00794, charge:  0.10839
 62 - H15      mass:  1.00794, charge:  0.10839
 63 - H16      mass:  1.00794, charge:  0.10839
 64 - H17      mass:  1.00794, charge:  0.10839
 65 - H18      mass:  1.00794, charge:  0.10839
 66 - H19      mass:  1.00794, charge:  0.10839
 67 - H20      mass:  1.00794, charge:  0.10839
 68 - H21      mass:  1.00794, charge:  0.10839
 69 - H22      mass:  1.00794, charge:  0.10839
 70 - H23      mass:  1.00794, charge:  0.10839
 71 - H24      mass:  1.00794, charge:  0.50442
 72 - H25      mass:  1.00794, charge:  0.10839
 73 - H26      mass:  1.00794, charge:  0.10839
 74 - H27      mass:  1.00794, charge:  0.10839
 75 - H28      mass:  1.00794, charge:  0.10839
 76 - O1       mass: 15.99940, charge: -0.59299
 77 - O2       mass: 15.99940, charge: -0.59299
 78 - O3       mass: 15.99940, charge: -0.59299
 79 - O4       mass: 15.99940, charge: -0.59299
 80 - O5       mass: 15.99940, charge: -0.59299
 81 - O6       mass: 15.99940, charge: -0.59299
 82 - O7       mass: 15.99940, charge: -1.05735
 83 - O8       mass: 15.99940, charge: -1.05735
 84 - O9       mass: 15.99940, charge: -1.05734
 85 - O10      mass: 15.99940, charge: -1.19639
 86 - O11      mass: 15.99940, charge: -0.59299
 87 - O12      mass: 15.99940, charge: -1.19629
 88 - O13      mass: 15.99940, charge: -0.59299
 89 - O14      mass: 15.99940, charge: -1.19639
 90 - O15      mass: 15.99940, charge: -0.59299
 91 - O16      mass: 15.99940, charge: -1.05735
 92 - O17      mass: 15.99940, charge: -0.59299
 93 - O18      mass: 15.99940, charge: -0.59299
 94 - O19      mass: 15.99940, charge: -0.59299
 95 - O20      mass: 15.99940, charge: -0.59299
 96 - O21      mass: 15.99940, charge: -0.59299
 97 - O22      mass: 15.99940, charge: -0.59299
 98 - O23      mass: 15.99940, charge: -0.59299
 99 - O24      mass: 15.99940, charge: -0.59299
100 - O25      mass: 15.99940, charge: -0.59299
101 - O26      mass: 15.99940, charge: -0.59299
102 - O27      mass: 15.99940, charge: -0.59299
103 - O28      mass: 15.99940, charge: -0.59299
104 - O29      mass: 15.99940, charge: -0.59299
105 - O30      mass: 15.99940, charge: -0.59299
106 - O31      mass: 15.99940, charge: -0.59299
107 - O32      mass: 15.99940, charge: -1.19639
108 - Zr1      mass: 91.22400, charge:  2.16953
109 - Zr2      mass: 91.22400, charge:  2.16950
110 - Zr3      mass: 91.22400, charge:  2.16953
111 - Zr4      mass: 91.22400, charge:  2.16950
112 - Zr5      mass: 91.22400, charge:  2.16953
113 - Zr6      mass: 91.22400, charge:  2.16950
114 - C_co2    mass: 12.01070, charge:  0.65120
115 - O_co2    mass: 15.99940, charge: -0.32560

  0 - C1       polarizability:  0.00000
  1 - C2       polarizability:  0.00000
  2 - C3       polarizability:  0.00000
  3 - C4       polarizability:  0.00000
  4 - C5       polarizability:  0.00000
  5 - C6       polarizability:  0.00000
  6 - C7       polarizability:  0.00000
  7 - C8       polarizability:  0.00000
  8 - C9       polarizability:  0.00000
  9 - C10      polarizability:  0.00000
 10 - C11      polarizability:  0.00000
 11 - C12      polarizability:  0.00000
 12 - C13      polarizability:  0.00000
 13 - C14      polarizability:  0.00000
 14 - C15      polarizability:  0.00000
 15 - C16      polarizability:  0.00000
 16 - C17      polarizability:  0.00000
 17 - C18      polarizability:  0.00000
 18 - C19      polarizability:  0.00000
 19 - C20      polarizability:  0.00000
 20 - C21      polarizability:  0.00000
 21 - C22      polarizability:  0.00000
 22 - C23      polarizability:  0.00000
 23 - C24      polarizability:  0.00000
 24 - C25      polarizability:  0.00000
 25 - C26      polarizability:  0.00000
 26 - C27      polarizability:  0.00000
 27 - C28      polarizability:  0.00000
 28 - C29      polarizability:  0.00000
 29 - C30      polarizability:  0.00000
 30 - C31      polarizability:  0.00000
 31 - C32      polarizability:  0.00000
 32 - C33      polarizability:  0.00000
 33 - C34      polarizability:  0.00000
 34 - C35      polarizability:  0.00000
 35 - C36      polarizability:  0.00000
 36 - C37      polarizability:  0.00000
 37 - C38      polarizability:  0.00000
 38 - C39      polarizability:  0.00000
 39 - C40      polarizability:  0.00000
 40 - C41      polarizability:  0.00000
 41 - C42      polarizability:  0.00000
 42 - C43      polarizability:  0.00000
 43 - C44      polarizability:  0.00000
 44 - C45      polarizability:  0.00000
 45 - C46      polarizability:  0.00000
 46 - C47      polarizability:  0.00000
 47 - C48      polarizability:  0.00000
 48 - H1       polarizability:  0.00000
 49 - H2       polarizability:  0.00000
 50 - H3       polarizability:  0.00000
 51 - H4       polarizability:  0.00000
 52 - H5       polarizability:  0.00000
 53 - H6       polarizability:  0.00000
 54 - H7       polarizability:  0.00000
 55 - H8       polarizability:  0.00000
 56 - H9       polarizability:  0.00000
 57 - H10      polarizability:  0.00000
 58 - H11      polarizability:  0.00000
 59 - H12      polarizability:  0.00000
 60 - H13      polarizability:  0.00000
 61 - H14      polarizability:  0.00000
 62 - H15      polarizability:  0.00000
 63 - H16      polarizability:  0.00000
 64 - H17      polarizability:  0.00000
 65 - H18      polarizability:  0.00000
 66 - H19      polarizability:  0.00000
 67 - H20      polarizability:  0.00000
 68 - H21      polarizability:  0.00000
 69 - H22      polarizability:  0.00000
 70 - H23      polarizability:  0.00000
 71 - H24      polarizability:  0.00000
 72 - H25      polarizability:  0.00000
 73 - H26      polarizability:  0.00000
 74 - H27      polarizability:  0.00000
 75 - H28      polarizability:  0.00000
 76 - O1       polarizability:  0.00000
 77 - O2       polarizability:  0.00000
 78 - O3       polarizability:  0.00000
 79 - O4       polarizability:  0.00000
 80 - O5       polarizability:  0.00000
 81 - O6       polarizability:  0.00000
 82 - O7       polarizability:  0.00000
 83 - O8       polarizability:  0.00000
 84 - O9       polarizability:  0.00000
 85 - O10      polarizability:  0.00000
 86 - O11      polarizability:  0.00000
 87 - O12      polarizability:  0.00000
 88 - O13      polarizability:  0.00000
 89 - O14      polarizability:  0.00000
 90 - O15      polarizability:  0.00000
 91 - O16      polarizability:  0.00000
 92 - O17      polarizability:  0.00000
 93 - O18      polarizability:  0.00000
 94 - O19      polarizability:  0.00000
 95 - O20      polarizability:  0.00000
 96 - O21      polarizability:  0.00000
 97 - O22      polarizability:  0.00000
 98 - O23      polarizability:  0.00000
 99 - O24      polarizability:  0.00000
100 - O25      polarizability:  0.00000
101 - O26      polarizability:  0.00000
102 - O27      polarizability:  0.00000
103 - O28      polarizability:  0.00000
104 - O29      polarizability:  0.00000
105 - O30      polarizability:  0.00000
106 - O31      polarizability:  0.00000
107 - O32      polarizability:  0.00000
108 - Zr1      polarizability:  0.00000
109 - Zr2      polarizability:  0.00000
110 - Zr3      polarizability:  0.00000
111 - Zr4      polarizability:  0.00000
112 - Zr5      polarizability:  0.00000
113 - Zr6      polarizability:  0.00000
114 - C_co2    polarizability:  0.00000
115 - O_co2    polarizability:  0.00000

  0 - DDEC6 from PACMOF2 / Nazarian 2016
  1 - DDEC6 from PACMOF2 / Nazarian 2016
  2 - DDEC6 from PACMOF2 / Nazarian 2016
  3 - DDEC6 from PACMOF2 / Nazarian 2016
  4 - DDEC6 from PACMOF2 / Nazarian 2016
  5 - DDEC6 from PACMOF2 / Nazarian 2016
  6 - DDEC6 from PACMOF2 / Nazarian 2016
  7 - DDEC6 from PACMOF2 / Nazarian 2016
  8 - DDEC6 from PACMOF2 / Nazarian 2016
  9 - DDEC6 from PACMOF2 / Nazarian 2016
 10 - DDEC6 from PACMOF2 / Nazarian 2016
 11 - DDEC6 from PACMOF2 / Nazarian 2016
 12 - DDEC6 from PACMOF2 / Nazarian 2016
 13 - DDEC6 from PACMOF2 / Nazarian 2016
 14 - DDEC6 from PACMOF2 / Nazarian 2016
 15 - DDEC6 from PACMOF2 / Nazarian 2016
 16 - DDEC6 from PACMOF2 / Nazarian 2016
 17 - DDEC6 from PACMOF2 / Nazarian 2016
 18 - DDEC6 from PACMOF2 / Nazarian 2016
 19 - DDEC6 from PACMOF2 / Nazarian 2016
 20 - DDEC6 from PACMOF2 / Nazarian 2016
 21 - DDEC6 from PACMOF2 / Nazarian 2016
 22 - DDEC6 from PACMOF2 / Nazarian 2016
 23 - DDEC6 from PACMOF2 / Nazarian 2016
 24 - DDEC6 from PACMOF2 / Nazarian 2016
 25 - DDEC6 from PACMOF2 / Nazarian 2016
 26 - DDEC6 from PACMOF2 / Nazarian 2016
 27 - DDEC6 from PACMOF2 / Nazarian 2016
 28 - DDEC6 from PACMOF2 / Nazarian 2016
 29 - DDEC6 from PACMOF2 / Nazarian 2016
 30 - DDEC6 from PACMOF2 / Nazarian 2016
 31 - DDEC6 from PACMOF2 / Nazarian 2016
 32 - DDEC6 from PACMOF2 / Nazarian 2016
 33 - DDEC6 from PACMOF2 / Nazarian 2016
 34 - DDEC6 from PACMOF2 / Nazarian 2016
 35 - DDEC6 from PACMOF2 / Nazarian 2016
 36 - DDEC6 from PACMOF2 / Nazarian 2016
 37 - DDEC6 from PACMOF2 / Nazarian 2016
 38 - DDEC6 from PACMOF2 / Nazarian 2016
 39 - DDEC6 from PACMOF2 / Nazarian 2016
 40 - DDEC6 from PACMOF2 / Nazarian 2016
 41 - DDEC6 from PACMOF2 / Nazarian 2016
 42 - DDEC6 from PACMOF2 / Nazarian 2016
 43 - DDEC6 from PACMOF2 / Nazarian 2016
 44 - DDEC6 from PACMOF2 / Nazarian 2016
 45 - DDEC6 from PACMOF2 / Nazarian 2016
 46 - DDEC6 from PACMOF2 / Nazarian 2016
 47 - DDEC6 from PACMOF2 / Nazarian 2016
 48 - DDEC6 from PACMOF2 / Nazarian 2016
 49 - DDEC6 from PACMOF2 / Nazarian 2016
 50 - DDEC6 from PACMOF2 / Nazarian 2016
 51 - DDEC6 from PACMOF2 / Nazarian 2016
 52 - DDEC6 from PACMOF2 / Nazarian 2016
 53 - DDEC6 from PACMOF2 / Nazarian 2016
 54 - DDEC6 from PACMOF2 / Nazarian 2016
 55 - DDEC6 from PACMOF2 / Nazarian 2016
 56 - DDEC6 from PACMOF2 / Nazarian 2016
 57 - DDEC6 from PACMOF2 / Nazarian 2016
 58 - DDEC6 from PACMOF2 / Nazarian 2016
 59 - DDEC6 from PACMOF2 / Nazarian 2016
 60 - DDEC6 from PACMOF2 / Nazarian 2016
 61 - DDEC6 from PACMOF2 / Nazarian 2016
 62 - DDEC6 from PACMOF2 / Nazarian 2016
 63 - DDEC6 from PACMOF2 / Nazarian 2016
 64 - DDEC6 from PACMOF2 / Nazarian 2016
 65 - DDEC6 from PACMOF2 / Nazarian 2016
 66 - DDEC6 from PACMOF2 / Nazarian 2016
 67 - DDEC6 from PACMOF2 / Nazarian 2016
 68 - DDEC6 from PACMOF2 / Nazarian 2016
 69 - DDEC6 from PACMOF2 / Nazarian 2016
 70 - DDEC6 from PACMOF2 / Nazarian 2016
 71 - DDEC6 from PACMOF2 / Nazarian 2016
 72 - DDEC6 from PACMOF2 / Nazarian 2016
 73 - DDEC6 from PACMOF2 / Nazarian 2016
 74 - DDEC6 from PACMOF2 / Nazarian 2016
 75 - DDEC6 from PACMOF2 / Nazarian 2016
 76 - DDEC6 from PACMOF2 / Nazarian 2016
 77 - DDEC6 from PACMOF2 / Nazarian 2016
 78 - DDEC6 from PACMOF2 / Nazarian 2016
 79 - DDEC6 from PACMOF2 / Nazarian 2016
 80 - DDEC6 from PACMOF2 / Nazarian 2016
 81 - DDEC6 from PACMOF2 / Nazarian 2016
 82 - DDEC6 from PACMOF2 / Nazarian 2016
 83 - DDEC6 from PACMOF2 / Nazarian 2016
 84 - DDEC6 from PACMOF2 / Nazarian 2016
 85 - DDEC6 from PACMOF2 / Nazarian 2016
 86 - DDEC6 from PACMOF2 / Nazarian 2016
 87 - DDEC6 from PACMOF2 / Nazarian 2016
 88 - DDEC6 from PACMOF2 / Nazarian 2016
 89 - DDEC6 from PACMOF2 / Nazarian 2016
 90 - DDEC6 from PACMOF2 / Nazarian 2016
 91 - DDEC6 from PACMOF2 / Nazarian 2016
 92 - DDEC6 from PACMOF2 / Nazarian 2016
 93 - DDEC6 from PACMOF2 / Nazarian 2016
 94 - DDEC6 from PACMOF2 / Nazarian 2016
 95 - DDEC6 from PACMOF2 / Nazarian 2016
 96 - DDEC6 from PACMOF2 / Nazarian 2016
 97 - DDEC6 from PACMOF2 / Nazarian 2016
 98 - DDEC6 from PACMOF2 / Nazarian 2016
 99 - DDEC6 from PACMOF2 / Nazarian 2016
100 - DDEC6 from PACMOF2 / Nazarian 2016
101 - DDEC6 from PACMOF2 / Nazarian 2016
102 - DDEC6 from PACMOF2 / Nazarian 2016
103 - DDEC6 from PACMOF2 / Nazarian 2016
104 - DDEC6 from PACMOF2 / Nazarian 2016
105 - DDEC6 from PACMOF2 / Nazarian 2016
106 - DDEC6 from PACMOF2 / Nazarian 2016
107 - DDEC6 from PACMOF2 / Nazarian 2016
108 - DDEC6 from PACMOF2 / Nazarian 2016
109 - DDEC6 from PACMOF2 / Nazarian 2016
110 - DDEC6 from PACMOF2 / Nazarian 2016
111 - DDEC6 from PACMOF2 / Nazarian 2016
112 - DDEC6 from PACMOF2 / Nazarian 2016
113 - DDEC6 from PACMOF2 / Nazarian 2016
114 - Harris-Yung 1995 CO2
115 - Harris-Yung 1995 CO2

Force field status
===============================================================================

Cutoff Framework-Molecule VDW:  12.00000 [Å]
Cutoff Molecule-Molecule VDW:   12.00000 [Å]
Cutoff Coulomb:                 12.00000 [Å]

Overlap-criteria VDW:           1.000000e+06 [K]

Mixing-rule: Lorentz-Berthelot
C1       - C1       Lennard-Jones  p₀/kʙ:  28.12900 [K], p₁:  2.76000 [Å]
                                   shift:  -0.01665 [K], tailcorrections: false
C1       - C2       Lennard-Jones  p₀/kʙ:  28.12900 [K], p₁:  2.76000 [Å]
                                   shift:  -0.01665 [K], tailcorrections: false
C1       - C3       Lennard-Jones  p₀/kʙ:  28.12900 [K], p₁:  2.76000 [Å]
                                   shift:  -0.01665 [K], tailcorrections: false
C1       - C4       Lennard-Jones  p₀/kʙ:  28.12900 [K], p₁:  2.76000 [Å]
                                   shift:  -0.01665 [K], tailcorrections: false
C1       - C5       Lennard-Jones  p₀/kʙ:  28.12900 [K], p₁:  2.76000 [Å]
                                   shift:  -0.01665 [K], tailcorrections: false
C1       - C6       Lennard-Jones  p₀/kʙ:  28.12900 [K], p₁:  2.76000 [Å]
                                   shift:  -0.01665 [K], tailcorrections: false
C1       - C7       Lennard-Jones  p₀/kʙ:  28.12900 [K], p₁:  2.76000 [Å]
                                   shift:  -0.01665 [K], tailcorrections: false
C1       - C8       Lennard-Jones  p₀/kʙ:  28.12900 [K], p₁:  2.76000 [Å]
                                   shift:  -0.01665 [K], tailcorrections: false
C1       - C9       Lennard-Jones  p₀/kʙ:  28.12900 [K], p₁:  2.76000 [Å]
                                   shift:  -0.01665 [K], tailcorrections: false
C1       - C10      Lennard-Jones  p₀/kʙ:  28.12900 [K], p₁:  2.76000 [Å]
                                   shift:  -0.01665 [K], tailcorrections: false
C1       - C11      Lennard-Jones  p₀/kʙ:  28.12900 [K], p₁:  2.76000 [Å]
                                   shift:  -0.01665 [K], tailcorrections: false
C1       - C12      Lennard-Jones  p₀/kʙ:  28.12900 [K], p₁:  2.76000 [Å]
                                   shift:  -0.01665 [K], tailcorrections: false
C1       - C13      Lennard-Jones  p₀/kʙ:  28.12900 [K], p₁:  2.76000 [Å]
                                   shift:  -0.01665 [K], tailcorrections: false
C1       - C14      Lennard-Jones  p₀/kʙ:  28.12900 [K], p₁:  2.76000 [Å]
                                   shift:  -0.01665 [K], tailcorrections: false
C1       - C15      Lennard-Jones  p₀/kʙ:  28.12900 [K], p₁:  2.76000 [Å]
                                   shift:  -0.01665 [K], tailcorrections: false
C1       - C16      Lennard-Jones  p₀/kʙ:  28.12900 [K], p₁:  2.76000 [Å]
                                   shift:  -0.01665 [K], tailcorrections: false
C1       - C17      Lennard-Jones  p₀/kʙ:  28.12900 [K], p₁:  2.76000 [Å]
                                   shift:  -0.01665 [K], tailcorrections: false
C1       - C18      Lennard-Jones  p₀/kʙ:  28.12900 [K], p₁:  2.76000 [Å]
                                   shift:  -0.01665 [K], tailcorrections: false
C1       - C19      Lennard-Jones  p₀/kʙ:  28.12900 [K], p₁:  2.76000 [Å]
                                   shift:  -0.01665 [K], tailcorrections: false
C1       - C20      Lennard-Jones  p₀/kʙ:  28.12900 [K], p₁:  2.76000 [Å]
                                   shift:  -0.01665 [K], tailcorrections: false
C1       - C21      Lennard-Jones  p₀/kʙ:  28.12900 [K], p₁:  2.76000 [Å]
                                   shift:  -0.01665 [K], tailcorrections: false
C1       - C22      Lennard-Jones  p₀/kʙ:  28.12900 [K], p₁:  2.76000 [Å]
                                   shift:  -0.01665 [K], tailcorrections: false
C1       - C23      Lennard-Jones  p₀/kʙ:  28.12900 [K], p₁:  2.76000 [Å]
                                   shift:  -0.01665 [K], tailcorrections: false
C1       - C24      Lennard-Jones  p₀/kʙ:  28.12900 [K], p₁:  2.76000 [Å]
                                   shift:  -0.01665 [K], tailcorrections: false
C1       - C25      Lennard-Jones  p₀/kʙ:  28.12900 [K], p₁:  2.76000 [Å]
                                   shift:  -0.01665 [K], tailcorrections: false
C1       - C26      Lennard-Jones  p₀/kʙ:  28.12900 [K], p₁:  2.76000 [Å]
                                   shift:  -0.01665 [K], tailcorrections: false
C1       - C27      Lennard-Jones  p₀/kʙ:  28.12900 [K], p₁:  2.76000 [Å]
                                   shift:  -0.01665 [K], tailcorrections: false
C1       - C28      Lennard-Jones  p₀/kʙ:  28.12900 [K], p₁:  2.76000 [Å]
                                   shift:  -0.01665 [K], tailcorrections: false
C1       - C29      Lennard-Jones  p₀/kʙ:  28.12900 [K], p₁:  2.76000 [Å]
                                   shift:  -0.01665 [K], tailcorrections: false
C1       - C30      Lennard-Jones  p₀/kʙ:  28.12900 [K], p₁:  2.76000 [Å]
                                   shift:  -0.01665 [K], tailcorrections: false
C1       - C31      Lennard-Jones  p₀/kʙ:  28.12900 [K], p₁:  2.76000 [Å]
                                   shift:  -0.01665 [K], tailcorrections: false
C1       - C32      Lennard-Jones  p₀/kʙ:  28.12900 [K], p₁:  2.76000 [Å]
                                   shift:  -0.01665 [K], tailcorrections: false
C1       - C33      Lennard-Jones  p₀/kʙ:  28.12900 [K], p₁:  2.76000 [Å]
                                   shift:  -0.01665 [K], tailcorrections: false
C1       - C34      Lennard-Jones  p₀/kʙ:  28.12900 [K], p₁:  2.76000 [Å]
                                   shift:  -0.01665 [K], tailcorrections: false
C1       - C35      Lennard-Jones  p₀/kʙ:  28.12900 [K], p₁:  2.76000 [Å]
                                   shift:  -0.01665 [K], tailcorrections: false
C1       - C36      Lennard-Jones  p₀/kʙ:  28.12900 [K], p₁:  2.76000 [Å]
                                   shift:  -0.01665 [K], tailcorrections: false
C1       - C37      Lennard-Jones  p₀/kʙ:  28.12900 [K], p₁:  2.76000 [Å]
                                   shift:  -0.01665 [K], tailcorrections: false
C1       - C38      Lennard-Jones  p₀/kʙ:  28.12900 [K], p₁:  2.76000 [Å]
                                   shift:  -0.01665 [K], tailcorrections: false
C1       - C39      Lennard-Jones  p₀/kʙ:  28.12900 [K], p₁:  2.76000 [Å]
                                   shift:  -0.01665 [K], tailcorrections: false
C1       - C40      Lennard-Jones  p₀/kʙ:  28.12900 [K], p₁:  2.76000 [Å]
                                   shift:  -0.01665 [K], tailcorrections: false
C1       - C41      Lennard-Jones  p₀/kʙ:  28.12900 [K], p₁:  2.76000 [Å]
                                   shift:  -0.01665 [K], tailcorrections: false
C1       - C42      Lennard-Jones  p₀/kʙ:  28.12900 [K], p₁:  2.76000 [Å]
                                   shift:  -0.01665 [K], tailcorrections: false
C1       - C43      Lennard-Jones  p₀/kʙ:  28.12900 [K], p₁:  2.76000 [Å]
                                   shift:  -0.01665 [K], tailcorrections: false
C1       - C44      Lennard-Jones  p₀/kʙ:  28.12900 [K], p₁:  2.76000 [Å]
                                   shift:  -0.01665 [K], tailcorrections: false
C1       - C45      Lennard-Jones  p₀/kʙ:  28.12900 [K], p₁:  2.76000 [Å]
                                   shift:  -0.01665 [K], tailcorrections: false
C1       - C46      Lennard-Jones  p₀/kʙ:  28.12900 [K], p₁:  2.76000 [Å]
                                   shift:  -0.01665 [K], tailcorrections: false
C1       - C47      Lennard-Jones  p₀/kʙ:  28.12900 [K], p₁:  2.76000 [Å]
                                   shift:  -0.01665 [K], tailcorrections: false
C1       - C48      Lennard-Jones  p₀/kʙ:  28.12900 [K], p₁:  2.76000 [Å]
                                   shift:  -0.01665 [K], tailcorrections: false
C1       - H1       Lennard-Jones  p₀/kʙ:  14.66858 [K], p₁:  2.66555 [Å]
                                   shift:  -0.00705 [K], tailcorrections: false
C1       - H2       Lennard-Jones  p₀/kʙ:  14.66858 [K], p₁:  2.66555 [Å]
                                   shift:  -0.00705 [K], tailcorrections: false
C1       - H3       Lennard-Jones  p₀/kʙ:  14.66858 [K], p₁:  2.66555 [Å]
                                   shift:  -0.00705 [K], tailcorrections: false
C1       - H4       Lennard-Jones  p₀/kʙ:  14.66858 [K], p₁:  2.66555 [Å]
                                   shift:  -0.00705 [K], tailcorrections: false
C1       - H5       Lennard-Jones  p₀/kʙ:  14.66858 [K], p₁:  2.66555 [Å]
                                   shift:  -0.00705 [K], tailcorrections: false
C1       - H6       Lennard-Jones  p₀/kʙ:  14.66858 [K], p₁:  2.66555 [Å]
                                   shift:  -0.00705 [K], tailcorrections: false
C1       - H7       Lennard-Jones  p₀/kʙ:  14.66858 [K], p₁:  2.66555 [Å]
                                   shift:  -0.00705 [K], tailcorrections: false
C1       - H8       Lennard-Jones  p₀/kʙ:  14.66858 [K], p₁:  2.66555 [Å]
                                   shift:  -0.00705 [K], tailcorrections: false
C1       - H9       Lennard-Jones  p₀/kʙ:  14.66858 [K], p₁:  2.66555 [Å]
                                   shift:  -0.00705 [K], tailcorrections: false
C1       - H10      Lennard-Jones  p₀/kʙ:  14.66858 [K], p₁:  2.66555 [Å]
                                   shift:  -0.00705 [K], tailcorrections: false
C1       - H11      Lennard-Jones  p₀/kʙ:  14.66858 [K], p₁:  2.66555 [Å]
                                   shift:  -0.00705 [K], tailcorrections: false
C1       - H12      Lennard-Jones  p₀/kʙ:  14.66858 [K], p₁:  2.66555 [Å]
                                   shift:  -0.00705 [K], tailcorrections: false
C1       - H13      Lennard-Jones  p₀/kʙ:  14.66858 [K], p₁:  2.66555 [Å]
                                   shift:  -0.00705 [K], tailcorrections: false
C1       - H14      Lennard-Jones  p₀/kʙ:  14.66858 [K], p₁:  2.66555 [Å]
                                   shift:  -0.00705 [K], tailcorrections: false
C1       - H15      Lennard-Jones  p₀/kʙ:  14.66858 [K], p₁:  2.66555 [Å]
                                   shift:  -0.00705 [K], tailcorrections: false
C1       - H16      Lennard-Jones  p₀/kʙ:  14.66858 [K], p₁:  2.66555 [Å]
                                   shift:  -0.00705 [K], tailcorrections: false
C1       - H17      Lennard-Jones  p₀/kʙ:  14.66858 [K], p₁:  2.66555 [Å]
                                   shift:  -0.00705 [K], tailcorrections: false
C1       - H18      Lennard-Jones  p₀/kʙ:  14.66858 [K], p₁:  2.66555 [Å]
                                   shift:  -0.00705 [K], tailcorrections: false
C1       - H19      Lennard-Jones  p₀/kʙ:  14.66858 [K], p₁:  2.66555 [Å]
                                   shift:  -0.00705 [K], tailcorrections: false
C1       - H20      Lennard-Jones  p₀/kʙ:  14.66858 [K], p₁:  2.66555 [Å]
                                   shift:  -0.00705 [K], tailcorrections: false
C1       - H21      Lennard-Jones  p₀/kʙ:  14.66858 [K], p₁:  2.66555 [Å]
                                   shift:  -0.00705 [K], tailcorrections: false
C1       - H22      Lennard-Jones  p₀/kʙ:  14.66858 [K], p₁:  2.66555 [Å]
                                   shift:  -0.00705 [K], tailcorrections: false
C1       - H23      Lennard-Jones  p₀/kʙ:  14.66858 [K], p₁:  2.66555 [Å]
                                   shift:  -0.00705 [K], tailcorrections: false
C1       - H24      Lennard-Jones  p₀/kʙ:  14.66858 [K], p₁:  2.66555 [Å]
                                   shift:  -0.00705 [K], tailcorrections: false
C1       - H25      Lennard-Jones  p₀/kʙ:  14.66858 [K], p₁:  2.66555 [Å]
                                   shift:  -0.00705 [K], tailcorrections: false
C1       - H26      Lennard-Jones  p₀/kʙ:  14.66858 [K], p₁:  2.66555 [Å]
                                   shift:  -0.00705 [K], tailcorrections: false
C1       - H27      Lennard-Jones  p₀/kʙ:  14.66858 [K], p₁:  2.66555 [Å]
                                   shift:  -0.00705 [K], tailcorrections: false
C1       - H28      Lennard-Jones  p₀/kʙ:  14.66858 [K], p₁:  2.66555 [Å]
                                   shift:  -0.00705 [K], tailcorrections: false
C1       - O1       Lennard-Jones  p₀/kʙ:  38.61136 [K], p₁:  3.03000 [Å]
                                   shift:  -0.04002 [K], tailcorrections: false
C1       - O2       Lennard-Jones  p₀/kʙ:  38.61136 [K], p₁:  3.03000 [Å]
                                   shift:  -0.04002 [K], tailcorrections: false
C1       - O3       Lennard-Jones  p₀/kʙ:  38.61136 [K], p₁:  3.03000 [Å]
                                   shift:  -0.04002 [K], tailcorrections: false
C1       - O4       Lennard-Jones  p₀/kʙ:  38.61136 [K], p₁:  3.03000 [Å]
                                   shift:  -0.04002 [K], tailcorrections: false
C1       - O5       Lennard-Jones  p₀/kʙ:  38.61136 [K], p₁:  3.03000 [Å]
                                   shift:  -0.04002 [K], tailcorrections: false
C1       - O6       Lennard-Jones  p₀/kʙ:  38.61136 [K], p₁:  3.03000 [Å]
                                   shift:  -0.04002 [K], tailcorrections: false
C1       - O7       Lennard-Jones  p₀/kʙ:  38.61136 [K], p₁:  3.03000 [Å]
                                   shift:  -0.04002 [K], tailcorrections: false
C1       - O8       Lennard-Jones  p₀/kʙ:  38.61136 [K], p₁:  3.03000 [Å]
                                   shift:  -0.04002 [K], tailcorrections: false
C1       - O9       Lennard-Jones  p₀/kʙ:  38.61136 [K], p₁:  3.03000 [Å]
                                   shift:  -0.04002 [K], tailcorrections: false
C1       - O10      Lennard-Jones  p₀/kʙ:  38.61136 [K], p₁:  3.03000 [Å]
                                   shift:  -0.04002 [K], tailcorrections: false
C1       - O11      Lennard-Jones  p₀/kʙ:  38.61136 [K], p₁:  3.03000 [Å]
                                   shift:  -0.04002 [K], tailcorrections: false
C1       - O12      Lennard-Jones  p₀/kʙ:  38.61136 [K], p₁:  3.03000 [Å]
                                   shift:  -0.04002 [K], tailcorrections: false
C1       - O13      Lennard-Jones  p₀/kʙ:  38.61136 [K], p₁:  3.03000 [Å]
                                   shift:  -0.04002 [K], tailcorrections: false
C1       - O14      Lennard-Jones  p₀/kʙ:  38.61136 [K], p₁:  3.03000 [Å]
                                   shift:  -0.04002 [K], tailcorrections: false
C1       - O15      Lennard-Jones  p₀/kʙ:  38.61136 [K], p₁:  3.03000 [Å]
                                   shift:  -0.04002 [K], tailcorrections: false
C1       - O16      Lennard-Jones  p₀/kʙ:  38.61136 [K], p₁:  3.03000 [Å]
                                   shift:  -0.04002 [K], tailcorrections: false
C1       - O17      Lennard-Jones  p₀/kʙ:  38.61136 [K], p₁:  3.03000 [Å]
                                   shift:  -0.04002 [K], tailcorrections: false
C1       - O18      Lennard-Jones  p₀/kʙ:  38.61136 [K], p₁:  3.03000 [Å]
                                   shift:  -0.04002 [K], tailcorrections: false
C1       - O19      Lennard-Jones  p₀/kʙ:  38.61136 [K], p₁:  3.03000 [Å]
                                   shift:  -0.04002 [K], tailcorrections: false
C1       - O20      Lennard-Jones  p₀/kʙ:  38.61136 [K], p₁:  3.03000 [Å]
                                   shift:  -0.04002 [K], tailcorrections: false
C1       - O21      Lennard-Jones  p₀/kʙ:  38.61136 [K], p₁:  3.03000 [Å]
                                   shift:  -0.04002 [K], tailcorrections: false
C1       - O22      Lennard-Jones  p₀/kʙ:  38.61136 [K], p₁:  3.03000 [Å]
                                   shift:  -0.04002 [K], tailcorrections: false
C1       - O23      Lennard-Jones  p₀/kʙ:  38.61136 [K], p₁:  3.03000 [Å]
                                   shift:  -0.04002 [K], tailcorrections: false
C1       - O24      Lennard-Jones  p₀/kʙ:  38.61136 [K], p₁:  3.03000 [Å]
                                   shift:  -0.04002 [K], tailcorrections: false
C1       - O25      Lennard-Jones  p₀/kʙ:  38.61136 [K], p₁:  3.03000 [Å]
                                   shift:  -0.04002 [K], tailcorrections: false
C1       - O26      Lennard-Jones  p₀/kʙ:  38.61136 [K], p₁:  3.03000 [Å]
                                   shift:  -0.04002 [K], tailcorrections: false
C1       - O27      Lennard-Jones  p₀/kʙ:  38.61136 [K], p₁:  3.03000 [Å]
                                   shift:  -0.04002 [K], tailcorrections: false
C1       - O28      Lennard-Jones  p₀/kʙ:  38.61136 [K], p₁:  3.03000 [Å]
                                   shift:  -0.04002 [K], tailcorrections: false
C1       - O29      Lennard-Jones  p₀/kʙ:  38.61136 [K], p₁:  3.03000 [Å]
                                   shift:  -0.04002 [K], tailcorrections: false
C1       - O30      Lennard-Jones  p₀/kʙ:  38.61136 [K], p₁:  3.03000 [Å]
                                   shift:  -0.04002 [K], tailcorrections: false
C1       - O31      Lennard-Jones  p₀/kʙ:  38.61136 [K], p₁:  3.03000 [Å]
                                   shift:  -0.04002 [K], tailcorrections: false
C1       - O32      Lennard-Jones  p₀/kʙ:  38.61136 [K], p₁:  3.03000 [Å]
                                   shift:  -0.04002 [K], tailcorrections: false
C1       - Zr1      Lennard-Jones  p₀/kʙ:  31.25221 [K], p₁:  2.77157 [Å]
                                   shift:  -0.01897 [K], tailcorrections: false
C1       - Zr2      Lennard-Jones  p₀/kʙ:  31.25221 [K], p₁:  2.77157 [Å]
                                   shift:  -0.01897 [K], tailcorrections: false
C1       - Zr3      Lennard-Jones  p₀/kʙ:  31.25221 [K], p₁:  2.77157 [Å]
                                   shift:  -0.01897 [K], tailcorrections: false
C1       - Zr4      Lennard-Jones  p₀/kʙ:  31.25221 [K], p₁:  2.77157 [Å]
                                   shift:  -0.01897 [K], tailcorrections: false
C1       - Zr5      Lennard-Jones  p₀/kʙ:  31.25221 [K], p₁:  2.77157 [Å]
                                   shift:  -0.01897 [K], tailcorrections: false
C1       - Zr6      Lennard-Jones  p₀/kʙ:  31.25221 [K], p₁:  2.77157 [Å]
                                   shift:  -0.01897 [K], tailcorrections: false
C1       - C_co2    Lennard-Jones  p₀/kʙ:  28.12900 [K], p₁:  2.76000 [Å]
                                   shift:  -0.01665 [K], tailcorrections: false
C1       - O_co2    Lennard-Jones  p₀/kʙ:  47.58762 [K], p₁:  2.89650 [Å]
                                   shift:  -0.03764 [K], tailcorrections: false
C2       - C2       Lennard-Jones  p₀/kʙ:  28.12900 [K], p₁:  2.76000 [Å]
                                   shift:  -0.01665 [K], tailcorrections: false
C2       - C3       Lennard-Jones  p₀/kʙ:  28.12900 [K], p₁:  2.76000 [Å]
                                   shift:  -0.01665 [K], tailcorrections: false
C2       - C4       Lennard-Jones  p₀/kʙ:  28.12900 [K], p₁:  2.76000 [Å]
                                   shift:  -0.01665 [K], tailcorrections: false
C2       - C5       Lennard-Jones  p₀/kʙ:  28.12900 [K], p₁:  2.76000 [Å]
                                   shift:  -0.01665 [K], tailcorrections: false
C2       - C6       Lennard-Jones  p₀/kʙ:  28.12900 [K], p₁:  2.76000 [Å]
                                   shift:  -0.01665 [K], tailcorrections: false
C2       - C7       Lennard-Jones  p₀/kʙ:  28.12900 [K], p₁:  2.76000 [Å]
                                   shift:  -0.01665 [K], tailcorrections: false
C2       - C8       Lennard-Jones  p₀/kʙ:  28.12900 [K], p₁:  2.76000 [Å]
                                   shift:  -0.01665 [K], tailcorrections: false
C2       - C9       Lennard-Jones  p₀/kʙ:  28.12900 [K], p₁:  2.76000 [Å]
                                   shift:  -0.01665 [K], tailcorrections: false
C2       - C10      Lennard-Jones  p₀/kʙ:  28.12900 [K], p₁:  2.76000 [Å]
                                   shift:  -0.01665 [K], tailcorrections: false
C2       - C11      Lennard-Jones  p₀/kʙ:  28.12900 [K], p₁:  2.76000 [Å]
                                   shift:  -0.01665 [K], tailcorrections: false
C2       - C12      Lennard-Jones  p₀/kʙ:  28.12900 [K], p₁:  2.76000 [Å]
                                   shift:  -0.01665 [K], tailcorrections: false
C2       - C13      Lennard-Jones  p₀/kʙ:  28.12900 [K], p₁:  2.76000 [Å]
                                   shift:  -0.01665 [K], tailcorrections: false
C2       - C14      Lennard-Jones  p₀/kʙ:  28.12900 [K], p₁:  2.76000 [Å]
                                   shift:  -0.01665 [K], tailcorrections: false
C2       - C15      Lennard-Jones  p₀/kʙ:  28.12900 [K], p₁:  2.76000 [Å]
                                   shift:  -0.01665 [K], tailcorrections: false
C2       - C16      Lennard-Jones  p₀/kʙ:  28.12900 [K], p₁:  2.76000 [Å]
                                   shift:  -0.01665 [K], tailcorrections: false
C2       - C17      Lennard-Jones  p₀/kʙ:  28.12900 [K], p₁:  2.76000 [Å]
                                   shift:  -0.01665 [K], tailcorrections: false
C2       - C18      Lennard-Jones  p₀/kʙ:  28.12900 [K], p₁:  2.76000 [Å]
                                   shift:  -0.01665 [K], tailcorrections: false
C2       - C19      Lennard-Jones  p₀/kʙ:  28.12900 [K], p₁:  2.76000 [Å]
                                   shift:  -0.01665 [K], tailcorrections: false
C2       - C20      Lennard-Jones  p₀/kʙ:  28.12900 [K], p₁:  2.76000 [Å]
                                   shift:  -0.01665 [K], tailcorrections: false
C2       - C21      Lennard-Jones  p₀/kʙ:  28.12900 [K], p₁:  2.76000 [Å]
                                   shift:  -0.01665 [K], tailcorrections: false
C2       - C22      Lennard-Jones  p₀/kʙ:  28.12900 [K], p₁:  2.76000 [Å]
                                   shift:  -0.01665 [K], tailcorrections: false
C2       - C23      Lennard-Jones  p₀/kʙ:  28.12900 [K], p₁:  2.76000 [Å]
                                   shift:  -0.01665 [K], tailcorrections: false
C2       - C24      Lennard-Jones  p₀/kʙ:  28.12900 [K], p₁:  2.76000 [Å]
                                   shift:  -0.01665 [K], tailcorrections: false
C2       - C25      Lennard-Jones  p₀/kʙ:  28.12900 [K], p₁:  2.76000 [Å]
                                   shift:  -0.01665 [K], tailcorrections: false
C2       - C26      Lennard-Jones  p₀/kʙ:  28.12900 [K], p₁:  2.76000 [Å]
                                   shift:  -0.01665 [K], tailcorrections: false
C2       - C27      Lennard-Jones  p₀/kʙ:  28.12900 [K], p₁:  2.76000 [Å]
                                   shift:  -0.01665 [K], tailcorrections: false
C2       - C28      Lennard-Jones  p₀/kʙ:  28.12900 [K], p₁:  2.76000 [Å]
                                   shift:  -0.01665 [K], tailcorrections: false
C2       - C29      Lennard-Jones  p₀/kʙ:  28.12900 [K], p₁:  2.76000 [Å]
                                   shift:  -0.01665 [K], tailcorrections: false
C2       - C30      Lennard-Jones  p₀/kʙ:  28.12900 [K], p₁:  2.76000 [Å]
                                   shift:  -0.01665 [K], tailcorrections: false
C2       - C31      Lennard-Jones  p₀/kʙ:  28.12900 [K], p₁:  2.76000 [Å]
                                   shift:  -0.01665 [K], tailcorrections: false
C2       - C32      Lennard-Jones  p₀/kʙ:  28.12900 [K], p₁:  2.76000 [Å]
                                   shift:  -0.01665 [K], tailcorrections: false
C2       - C33      Lennard-Jones  p₀/kʙ:  28.12900 [K], p₁:  2.76000 [Å]
                                   shift:  -0.01665 [K], tailcorrections: false
C2       - C34      Lennard-Jones  p₀/kʙ:  28.12900 [K], p₁:  2.76000 [Å]
                                   shift:  -0.01665 [K], tailcorrections: false
C2       - C35      Lennard-Jones  p₀/kʙ:  28.12900 [K], p₁:  2.76000 [Å]
                                   shift:  -0.01665 [K], tailcorrections: false
C2       - C36      Lennard-Jones  p₀/kʙ:  28.12900 [K], p₁:  2.76000 [Å]
                                   shift:  -0.01665 [K], tailcorrections: false
C2       - C37      Lennard-Jones  p₀/kʙ:  28.12900 [K], p₁:  2.76000 [Å]
                                   shift:  -0.01665 [K], tailcorrections: false
C2       - C38      Lennard-Jones  p₀/kʙ:  28.12900 [K], p₁:  2.76000 [Å]
                                   shift:  -0.01665 [K], tailcorrections: false
C2       - C39      Lennard-Jones  p₀/kʙ:  28.12900 [K], p₁:  2.76000 [Å]
                                   shift:  -0.01665 [K], tailcorrections: false
C2       - C40      Lennard-Jones  p₀/kʙ:  28.12900 [K], p₁:  2.76000 [Å]
                                   shift:  -0.01665 [K], tailcorrections: false
C2       - C41      Lennard-Jones  p₀/kʙ:  28.12900 [K], p₁:  2.76000 [Å]
                                   shift:  -0.01665 [K], tailcorrections: false
C2       - C42      Lennard-Jones  p₀/kʙ:  28.12900 [K], p₁:  2.76000 [Å]
                                   shift:  -0.01665 [K], tailcorrections: false
C2       - C43      Lennard-Jones  p₀/kʙ:  28.12900 [K], p₁:  2.76000 [Å]
                                   shift:  -0.01665 [K], tailcorrections: false
C2       - C44      Lennard-Jones  p₀/kʙ:  28.12900 [K], p₁:  2.76000 [Å]
                                   shift:  -0.01665 [K], tailcorrections: false
C2       - C45      Lennard-Jones  p₀/kʙ:  28.12900 [K], p₁:  2.76000 [Å]
                                   shift:  -0.01665 [K], tailcorrections: false
C2       - C46      Lennard-Jones  p₀/kʙ:  28.12900 [K], p₁:  2.76000 [Å]
                                   shift:  -0.01665 [K], tailcorrections: false
C2       - C47      Lennard-Jones  p₀/kʙ:  28.12900 [K], p₁:  2.76000 [Å]
                                   shift:  -0.01665 [K], tailcorrections: false
C2       - C48      Lennard-Jones  p₀/kʙ:  28.12900 [K], p₁:  2.76000 [Å]
                                   shift:  -0.01665 [K], tailcorrections: false
C2       - H1       Lennard-Jones  p₀/kʙ:  14.66858 [K], p₁:  2.66555 [Å]
                                   shift:  -0.00705 [K], tailcorrections: false
C2       - H2       Lennard-Jones  p₀/kʙ:  14.66858 [K], p₁:  2.66555 [Å]
                                   shift:  -0.00705 [K], tailcorrections: false
C2       - H3       Lennard-Jones  p₀/kʙ:  14.66858 [K], p₁:  2.66555 [Å]
                                   shift:  -0.00705 [K], tailcorrections: false
C2       - H4       Lennard-Jones  p₀/kʙ:  14.66858 [K], p₁:  2.66555 [Å]
                                   shift:  -0.00705 [K], tailcorrections: false
C2       - H5       Lennard-Jones  p₀/kʙ:  14.66858 [K], p₁:  2.66555 [Å]
                                   shift:  -0.00705 [K], tailcorrections: false
C2       - H6       Lennard-Jones  p₀/kʙ:  14.66858 [K], p₁:  2.66555 [Å]
                                   shift:  -0.00705 [K], tailcorrections: false
C2       - H7       Lennard-Jones  p₀/kʙ:  14.66858 [K], p₁:  2.66555 [Å]
                                   shift:  -0.00705 [K], tailcorrections: false
C2       - H8       Lennard-Jones  p₀/kʙ:  14.66858 [K], p₁:  2.66555 [Å]
                                   shift:  -0.00705 [K], tailcorrections: false
C2       - H9       Lennard-Jones  p₀/kʙ:  14.66858 [K], p₁:  2.66555 [Å]
                                   shift:  -0.00705 [K], tailcorrections: false
C2       - H10      Lennard-Jones  p₀/kʙ:  14.66858 [K], p₁:  2.66555 [Å]
                                   shift:  -0.00705 [K], tailcorrections: false
C2       - H11      Lennard-Jones  p₀/kʙ:  14.66858 [K], p₁:  2.66555 [Å]
                                   shift:  -0.00705 [K], tailcorrections: false
C2       - H12      Lennard-Jones  p₀/kʙ:  14.66858 [K], p₁:  2.66555 [Å]
                                   shift:  -0.00705 [K], tailcorrections: false
C2       - H13      Lennard-Jones  p₀/kʙ:  14.66858 [K], p₁:  2.66555 [Å]
                                   shift:  -0.00705 [K], tailcorrections: false
C2       - H14      Lennard-Jones  p₀/kʙ:  14.66858 [K], p₁:  2.66555 [Å]
                                   shift:  -0.00705 [K], tailcorrections: false
C2       - H15      Lennard-Jones  p₀/kʙ:  14.66858 [K], p₁:  2.66555 [Å]
                                   shift:  -0.00705 [K], tailcorrections: false
C2       - H16      Lennard-Jones  p₀/kʙ:  14.66858 [K], p₁:  2.66555 [Å]
                                   shift:  -0.00705 [K], tailcorrections: false
C2       - H17      Lennard-Jones  p₀/kʙ:  14.66858 [K], p₁:  2.66555 [Å]
                                   shift:  -0.00705 [K], tailcorrections: false
C2       - H18      Lennard-Jones  p₀/kʙ:  14.66858 [K], p₁:  2.66555 [Å]
                                   shift:  -0.00705 [K], tailcorrections: false
C2       - H19      Lennard-Jones  p₀/kʙ:  14.66858 [K], p₁:  2.66555 [Å]
                                   shift:  -0.00705 [K], tailcorrections: false
C2       - H20      Lennard-Jones  p₀/kʙ:  14.66858 [K], p₁:  2.66555 [Å]
                                   shift:  -0.00705 [K], tailcorrections: false
C2       - H21      Lennard-Jones  p₀/kʙ:  14.66858 [K], p₁:  2.66555 [Å]
                                   shift:  -0.00705 [K], tailcorrections: false
C2       - H22      Lennard-Jones  p₀/kʙ:  14.66858 [K], p₁:  2.66555 [Å]
                                   shift:  -0.00705 [K], tailcorrections: false
C2       - H23      Lennard-Jones  p₀/kʙ:  14.66858 [K], p₁:  2.66555 [Å]
                                   shift:  -0.00705 [K], tailcorrections: false
C2       - H24      Lennard-Jones  p₀/kʙ:  14.66858 [K], p₁:  2.66555 [Å]
                                   shift:  -0.00705 [K], tailcorrections: false
C2       - H25      Lennard-Jones  p₀/kʙ:  14.66858 [K], p₁:  2.66555 [Å]
                                   shift:  -0.00705 [K], tailcorrections: false
C2       - H26      Lennard-Jones  p₀/kʙ:  14.66858 [K], p₁:  2.66555 [Å]
                                   shift:  -0.00705 [K], tailcorrections: false
C2       - H27      Lennard-Jones  p₀/kʙ:  14.66858 [K], p₁:  2.66555 [Å]
                                   shift:  -0.00705 [K], tailcorrections: false
C2       - H28      Lennard-Jones  p₀/kʙ:  14.66858 [K], p₁:  2.66555 [Å]
                                   shift:  -0.00705 [K], tailcorrections: false
C2       - O1       Lennard-Jones  p₀/kʙ:  38.61136 [K], p₁:  3.03000 [Å]
                                   shift:  -0.04002 [K], tailcorrections: false
C2       - O2       Lennard-Jones  p₀/kʙ:  38.61136 [K], p₁:  3.03000 [Å]
                                   shift:  -0.04002 [K], tailcorrections: false
C2       - O3       Lennard-Jones  p₀/kʙ:  38.61136 [K], p₁:  3.03000 [Å]
                                   shift:  -0.04002 [K], tailcorrections: false
C2       - O4       Lennard-Jones  p₀/kʙ:  38.61136 [K], p₁:  3.03000 [Å]
                                   shift:  -0.04002 [K], tailcorrections: false
C2       - O5       Lennard-Jones  p₀/kʙ:  38.61136 [K], p₁:  3.03000 [Å]
                                   shift:  -0.04002 [K], tailcorrections: false
C2       - O6       Lennard-Jones  p₀/kʙ:  38.61136 [K], p₁:  3.03000 [Å]
                                   shift:  -0.04002 [K], tailcorrections: false
C2       - O7       Lennard-Jones  p₀/kʙ:  38.61136 [K], p₁:  3.03000 [Å]
                                   shift:  -0.04002 [K], tailcorrections: false
C2       - O8       Lennard-Jones  p₀/kʙ:  38.61136 [K], p₁:  3.03000 [Å]
                                   shift:  -0.04002 [K], tailcorrections: false
C2       - O9       Lennard-Jones  p₀/kʙ:  38.61136 [K], p₁:  3.03000 [Å]
                                   shift:  -0.04002 [K], tailcorrections: false
C2       - O10      Lennard-Jones  p₀/kʙ:  38.61136 [K], p₁:  3.03000 [Å]
                                   shift:  -0.04002 [K], tailcorrections: false
C2       - O11      Lennard-Jones  p₀/kʙ:  38.61136 [K], p₁:  3.03000 [Å]
                                   shift:  -0.04002 [K], tailcorrections: false
C2       - O12      Lennard-Jones  p₀/kʙ:  38.61136 [K], p₁:  3.03000 [Å]
                                   shift:  -0.04002 [K], tailcorrections: false
C2       - O13      Lennard-Jones  p₀/kʙ:  38.61136 [K], p₁:  3.03000 [Å]
                                   shift:  -0.04002 [K], tailcorrections: false
C2       - O14      Lennard-Jones  p₀/kʙ:  38.61136 [K], p₁:  3.03000 [Å]
                                   shift:  -0.04002 [K], tailcorrections: false
C2       - O15      Lennard-Jones  p₀/kʙ:  38.61136 [K], p₁:  3.03000 [Å]
                                   shift:  -0.04002 [K], tailcorrections: false
C2       - O16      Lennard-Jones  p₀/kʙ:  38.61136 [K], p₁:  3.03000 [Å]
                                   shift:  -0.04002 [K], tailcorrections: false
C2       - O17      Lennard-Jones  p₀/kʙ:  38.61136 [K], p₁:  3.03000 [Å]
                                   shift:  -0.04002 [K], tailcorrections: false
C2       - O18      Lennard-Jones  p₀/kʙ:  38.61136 [K], p₁:  3.03000 [Å]
                                   shift:  -0.04002 [K], tailcorrections: false
C2       - O19      Lennard-Jones  p₀/kʙ:  38.61136 [K], p₁:  3.03000 [Å]
                                   shift:  -0.04002 [K], tailcorrections: false
C2       - O20      Lennard-Jones  p₀/kʙ:  38.61136 [K], p₁:  3.03000 [Å]
                                   shift:  -0.04002 [K], tailcorrections: false
C2       - O21      Lennard-Jones  p₀/kʙ:  38.61136 [K], p₁:  3.03000 [Å]
                                   shift:  -0.04002 [K], tailcorrections: false
C2       - O22      Lennard-Jones  p₀/kʙ:  38.61136 [K], p₁:  3.03000 [Å]
                                   shift:  -0.04002 [K], tailcorrections: false
C2       - O23      Lennard-Jones  p₀/kʙ:  38.61136 [K], p₁:  3.03000 [Å]
                                   shift:  -0.04002 [K], tailcorrections: false
C2       - O24      Lennard-Jones  p₀/kʙ:  38.61136 [K], p₁:  3.03000 [Å]
                                   shift:  -0.04002 [K], tailcorrections: false
C2       - O25      Lennard-Jones  p₀/kʙ:  38.61136 [K], p₁:  3.03000 [Å]
                                   shift:  -0.04002 [K], tailcorrections: false
C2       - O26      Lennard-Jones  p₀/kʙ:  38.61136 [K], p₁:  3.03000 [Å]
                                   shift:  -0.04002 [K], tailcorrections: false
C2       - O27      Lennard-Jones  p₀/kʙ:  38.61136 [K], p₁:  3.03000 [Å]
                                   shift:  -0.04002 [K], tailcorrections: false
C2       - O28      Lennard-Jones  p₀/kʙ:  38.61136 [K], p₁:  3.03000 [Å]
                                   shift:  -0.04002 [K], tailcorrections: false
C2       - O29      Lennard-Jones  p₀/kʙ:  38.61136 [K], p₁:  3.03000 [Å]
                                   shift:  -0.04002 [K], tailcorrections: false
C2       - O30      Lennard-Jones  p₀/kʙ:  38.61136 [K], p₁:  3.03000 [Å]
                                   shift:  -0.04002 [K], tailcorrections: false
C2       - O31      Lennard-Jones  p₀/kʙ:  38.61136 [K], p₁:  3.03000 [Å]
                                   shift:  -0.04002 [K], tailcorrections: false
C2       - O32      Lennard-Jones  p₀/kʙ:  38.61136 [K], p₁:  3.03000 [Å]
                                   shift:  -0.04002 [K], tailcorrections: false
C2       - Zr1      Lennard-Jones  p₀/kʙ:  31.25221 [K], p₁:  2.77157 [Å]
                                   shift:  -0.01897 [K], tailcorrections: false
C2       - Zr2      Lennard-Jones  p₀/kʙ:  31.25221 [K], p₁:  2.77157 [Å]
                                   shift:  -0.01897 [K], tailcorrections: false
C2       - Zr3      Lennard-Jones  p₀/kʙ:  31.25221 [K], p₁:  2.77157 [Å]
                                   shift:  -0.01897 [K], tailcorrections: false
C2       - Zr4      Lennard-Jones  p₀/kʙ:  31.25221 [K], p₁:  2.77157 [Å]
                                   shift:  -0.01897 [K], tailcorrections: false
C2       - Zr5      Lennard-Jones  p₀/kʙ:  31.25221 [K], p₁:  2.77157 [Å]
                                   shift:  -0.01897 [K], tailcorrections: false
C2       - Zr6      Lennard-Jones  p₀/kʙ:  31.25221 [K], p₁:  2.77157 [Å]
                                   shift:  -0.01897 [K], tailcorrections: false
C2       - C_co2    Lennard-Jones  p₀/kʙ:  28.12900 [K], p₁:  2.76000 [Å]
                                   shift:  -0.01665 [K], tailcorrections: false
C2       - O_co2    Lennard-Jones  p₀/kʙ:  47.58762 [K], p₁:  2.89650 [Å]
                                   shift:  -0.03764 [K], tailcorrections: false
C3       - C3       Lennard-Jones  p₀/kʙ:  28.12900 [K], p₁:  2.76000 [Å]
                                   shift:  -0.01665 [K], tailcorrections: false
C3       - C4       Lennard-Jones  p₀/kʙ:  28.12900 [K], p₁:  2.76000 [Å]
                                   shift:  -0.01665 [K], tailcorrections: false
C3       - C5       Lennard-Jones  p₀/kʙ:  28.12900 [K], p₁:  2.76000 [Å]
                                   shift:  -0.01665 [K], tailcorrections: false
C3       - C6       Lennard-Jones  p₀/kʙ:  28.12900 [K], p₁:  2.76000 [Å]
                                   shift:  -0.01665 [K], tailcorrections: false
C3       - C7       Lennard-Jones  p₀/kʙ:  28.12900 [K], p₁:  2.76000 [Å]
                                   shift:  -0.01665 [K], tailcorrections: false
C3       - C8       Lennard-Jones  p₀/kʙ:  28.12900 [K], p₁:  2.76000 [Å]
                                   shift:  -0.01665 [K], tailcorrections: false
C3       - C9       Lennard-Jones  p₀/kʙ:  28.12900 [K], p₁:  2.76000 [Å]
                                   shift:  -0.01665 [K], tailcorrections: false
C3       - C10      Lennard-Jones  p₀/kʙ:  28.12900 [K], p₁:  2.76000 [Å]
                                   shift:  -0.01665 [K], tailcorrections: false
C3       - C11      Lennard-Jones  p₀/kʙ:  28.12900 [K], p₁:  2.76000 [Å]
                                   shift:  -0.01665 [K], tailcorrections: false
C3       - C12      Lennard-Jones  p₀/kʙ:  28.12900 [K], p₁:  2.76000 [Å]
                                   shift:  -0.01665 [K], tailcorrections: false
C3       - C13      Lennard-Jones  p₀/kʙ:  28.12900 [K], p₁:  2.76000 [Å]
                                   shift:  -0.01665 [K], tailcorrections: false
C3       - C14      Lennard-Jones  p₀/kʙ:  28.12900 [K], p₁:  2.76000 [Å]
                                   shift:  -0.01665 [K], tailcorrections: false
C3       - C15      Lennard-Jones  p₀/kʙ:  28.12900 [K], p₁:  2.76000 [Å]
                                   shift:  -0.01665 [K], tailcorrections: false
C3       - C16      Lennard-Jones  p₀/kʙ:  28.12900 [K], p₁:  2.76000 [Å]
                                   shift:  -0.01665 [K], tailcorrections: false
C3       - C17      Lennard-Jones  p₀/kʙ:  28.12900 [K], p₁:  2.76000 [Å]
                                   shift:  -0.01665 [K], tailcorrections: false
C3       - C18      Lennard-Jones  p₀/kʙ:  28.12900 [K], p₁:  2.76000 [Å]
                                   shift:  -0.01665 [K], tailcorrections: false
C3       - C19      Lennard-Jones  p₀/kʙ:  28.12900 [K], p₁:  2.76000 [Å]
                                   shift:  -0.01665 [K], tailcorrections: false
C3       - C20      Lennard-Jones  p₀/kʙ:  28.12900 [K], p₁:  2.76000 [Å]
                                   shift:  -0.01665 [K], tailcorrections: false
C3       - C21      Lennard-Jones  p₀/kʙ:  28.12900 [K], p₁:  2.76000 [Å]
                                   shift:  -0.01665 [K], tailcorrections: false
C3       - C22      Lennard-Jones  p₀/kʙ:  28.12900 [K], p₁:  2.76000 [Å]
                                   shift:  -0.01665 [K], tailcorrections: false
C3       - C23      Lennard-Jones  p₀/kʙ:  28.12900 [K], p₁:  2.76000 [Å]
                                   shift:  -0.01665 [K], tailcorrections: false
C3       - C24      Lennard-Jones  p₀/kʙ:  28.12900 [K], p₁:  2.76000 [Å]
                                   shift:  -0.01665 [K], tailcorrections: false
C3       - C25      Lennard-Jones  p₀/kʙ:  28.12900 [K], p₁:  2.76000 [Å]
                                   shift:  -0.01665 [K], tailcorrections: false
C3       - C26      Lennard-Jones  p₀/kʙ:  28.12900 [K], p₁:  2.76000 [Å]
                                   shift:  -0.01665 [K], tailcorrections: false
C3       - C27      Lennard-Jones  p₀/kʙ:  28.12900 [K], p₁:  2.76000 [Å]
                                   shift:  -0.01665 [K], tailcorrections: false
C3       - C28      Lennard-Jones  p₀/kʙ:  28.12900 [K], p₁:  2.76000 [Å]
                                   shift:  -0.01665 [K], tailcorrections: false
C3       - C29      Lennard-Jones  p₀/kʙ:  28.12900 [K], p₁:  2.76000 [Å]
                                   shift:  -0.01665 [K], tailcorrections: false
C3       - C30      Lennard-Jones  p₀/kʙ:  28.12900 [K], p₁:  2.76000 [Å]
                                   shift:  -0.01665 [K], tailcorrections: false
C3       - C31      Lennard-Jones  p₀/kʙ:  28.12900 [K], p₁:  2.76000 [Å]
                                   shift:  -0.01665 [K], tailcorrections: false
C3       - C32      Lennard-Jones  p₀/kʙ:  28.12900 [K], p₁:  2.76000 [Å]
                                   shift:  -0.01665 [K], tailcorrections: false
C3       - C33      Lennard-Jones  p₀/kʙ:  28.12900 [K], p₁:  2.76000 [Å]
                                   shift:  -0.01665 [K], tailcorrections: false
C3       - C34      Lennard-Jones  p₀/kʙ:  28.12900 [K], p₁:  2.76000 [Å]
                                   shift:  -0.01665 [K], tailcorrections: false
C3       - C35      Lennard-Jones  p₀/kʙ:  28.12900 [K], p₁:  2.76000 [Å]
                                   shift:  -0.01665 [K], tailcorrections: false
C3       - C36      Lennard-Jones  p₀/kʙ:  28.12900 [K], p₁:  2.76000 [Å]
                                   shift:  -0.01665 [K], tailcorrections: false
C3       - C37      Lennard-Jones  p₀/kʙ:  28.12900 [K], p₁:  2.76000 [Å]
                                   shift:  -0.01665 [K], tailcorrections: false
C3       - C38      Lennard-Jones  p₀/kʙ:  28.12900 [K], p₁:  2.76000 [Å]
                                   shift:  -0.01665 [K], tailcorrections: false
C3       - C39      Lennard-Jones  p₀/kʙ:  28.12900 [K], p₁:  2.76000 [Å]
                                   shift:  -0.01665 [K], tailcorrections: false
C3       - C40      Lennard-Jones  p₀/kʙ:  28.12900 [K], p₁:  2.76000 [Å]
                                   shift:  -0.01665 [K], tailcorrections: false
C3       - C41      Lennard-Jones  p₀/kʙ:  28.12900 [K], p₁:  2.76000 [Å]
                                   shift:  -0.01665 [K], tailcorrections: false
C3       - C42      Lennard-Jones  p₀/kʙ:  28.12900 [K], p₁:  2.76000 [Å]
                                   shift:  -0.01665 [K], tailcorrections: false
C3       - C43      Lennard-Jones  p₀/kʙ:  28.12900 [K], p₁:  2.76000 [Å]
                                   shift:  -0.01665 [K], tailcorrections: false
C3       - C44      Lennard-Jones  p₀/kʙ:  28.12900 [K], p₁:  2.76000 [Å]
                                   shift:  -0.01665 [K], tailcorrections: false
C3       - C45      Lennard-Jones  p₀/kʙ:  28.12900 [K], p₁:  2.76000 [Å]
                                   shift:  -0.01665 [K], tailcorrections: false
C3       - C46      Lennard-Jones  p₀/kʙ:  28.12900 [K], p₁:  2.76000 [Å]
                                   shift:  -0.01665 [K], tailcorrections: false
C3       - C47      Lennard-Jones  p₀/kʙ:  28.12900 [K], p₁:  2.76000 [Å]
                                   shift:  -0.01665 [K], tailcorrections: false
C3       - C48      Lennard-Jones  p₀/kʙ:  28.12900 [K], p₁:  2.76000 [Å]
                                   shift:  -0.01665 [K], tailcorrections: false
C3       - H1       Lennard-Jones  p₀/kʙ:  14.66858 [K], p₁:  2.66555 [Å]
                                   shift:  -0.00705 [K], tailcorrections: false
C3       - H2       Lennard-Jones  p₀/kʙ:  14.66858 [K], p₁:  2.66555 [Å]
                                   shift:  -0.00705 [K], tailcorrections: false
C3       - H3       Lennard-Jones  p₀/kʙ:  14.66858 [K], p₁:  2.66555 [Å]
                                   shift:  -0.00705 [K], tailcorrections: false
C3       - H4       Lennard-Jones  p₀/kʙ:  14.66858 [K], p₁:  2.66555 [Å]
                                   shift:  -0.00705 [K], tailcorrections: false
C3       - H5       Lennard-Jones  p₀/kʙ:  14.66858 [K], p₁:  2.66555 [Å]
                                   shift:  -0.00705 [K], tailcorrections: false
C3       - H6       Lennard-Jones  p₀/kʙ:  14.66858 [K], p₁:  2.66555 [Å]
                                   shift:  -0.00705 [K], tailcorrections: false
C3       - H7       Lennard-Jones  p₀/kʙ:  14.66858 [K], p₁:  2.66555 [Å]
                                   shift:  -0.00705 [K], tailcorrections: false
C3       - H8       Lennard-Jones  p₀/kʙ:  14.66858 [K], p₁:  2.66555 [Å]
                                   shift:  -0.00705 [K], tailcorrections: false
C3       - H9       Lennard-Jones  p₀/kʙ:  14.66858 [K], p₁:  2.66555 [Å]
                                   shift:  -0.00705 [K], tailcorrections: false
C3       - H10      Lennard-Jones  p₀/kʙ:  14.66858 [K], p₁:  2.66555 [Å]
                                   shift:  -0.00705 [K], tailcorrections: false
C3       - H11      Lennard-Jones  p₀/kʙ:  14.66858 [K], p₁:  2.66555 [Å]
                                   shift:  -0.00705 [K], tailcorrections: false
C3       - H12      Lennard-Jones  p₀/kʙ:  14.66858 [K], p₁:  2.66555 [Å]
                                   shift:  -0.00705 [K], tailcorrections: false
C3       - H13      Lennard-Jones  p₀/kʙ:  14.66858 [K], p₁:  2.66555 [Å]
                                   shift:  -0.00705 [K], tailcorrections: false
C3       - H14      Lennard-Jones  p₀/kʙ:  14.66858 [K], p₁:  2.66555 [Å]
                                   shift:  -0.00705 [K], tailcorrections: false
C3       - H15      Lennard-Jones  p₀/kʙ:  14.66858 [K], p₁:  2.66555 [Å]
                                   shift:  -0.00705 [K], tailcorrections: false
C3       - H16      Lennard-Jones  p₀/kʙ:  14.66858 [K], p₁:  2.66555 [Å]
                                   shift:  -0.00705 [K], tailcorrections: false
C3       - H17      Lennard-Jones  p₀/kʙ:  14.66858 [K], p₁:  2.66555 [Å]
                                   shift:  -0.00705 [K], tailcorrections: false
C3       - H18      Lennard-Jones  p₀/kʙ:  14.66858 [K], p₁:  2.66555 [Å]
                                   shift:  -0.00705 [K], tailcorrections: false
C3       - H19      Lennard-Jones  p₀/kʙ:  14.66858 [K], p₁:  2.66555 [Å]
                                   shift:  -0.00705 [K], tailcorrections: false
C3       - H20      Lennard-Jones  p₀/kʙ:  14.66858 [K], p₁:  2.66555 [Å]
                                   shift:  -0.00705 [K], tailcorrections: false
C3       - H21      Lennard-Jones  p₀/kʙ:  14.66858 [K], p₁:  2.66555 [Å]
                                   shift:  -0.00705 [K], tailcorrections: false
C3       - H22      Lennard-Jones  p₀/kʙ:  14.66858 [K], p₁:  2.66555 [Å]
                                   shift:  -0.00705 [K], tailcorrections: false
C3       - H23      Lennard-Jones  p₀/kʙ:  14.66858 [K], p₁:  2.66555 [Å]
                                   shift:  -0.00705 [K], tailcorrections: false
C3       - H24      Lennard-Jones  p₀/kʙ:  14.66858 [K], p₁:  2.66555 [Å]
                                   shift:  -0.00705 [K], tailcorrections: false
C3       - H25      Lennard-Jones  p₀/kʙ:  14.66858 [K], p₁:  2.66555 [Å]
                                   shift:  -0.00705 [K], tailcorrections: false
C3       - H26      Lennard-Jones  p₀/kʙ:  14.66858 [K], p₁:  2.66555 [Å]
                                   shift:  -0.00705 [K], tailcorrections: false
C3       - H27      Lennard-Jones  p₀/kʙ:  14.66858 [K], p₁:  2.66555 [Å]
                                   shift:  -0.00705 [K], tailcorrections: false
C3       - H28      Lennard-Jones  p₀/kʙ:  14.66858 [K], p₁:  2.66555 [Å]
                                   shift:  -0.00705 [K], tailcorrections: false
C3       - O1       Lennard-Jones  p₀/kʙ:  38.61136 [K], p₁:  3.03000 [Å]
                                   shift:  -0.04002 [K], tailcorrections: false
C3       - O2       Lennard-Jones  p₀/kʙ:  38.61136 [K], p₁:  3.03000 [Å]
                                   shift:  -0.04002 [K], tailcorrections: false
C3       - O3       Lennard-Jones  p₀/kʙ:  38.61136 [K], p₁:  3.03000 [Å]
                                   shift:  -0.04002 [K], tailcorrections: false
C3       - O4       Lennard-Jones  p₀/kʙ:  38.61136 [K], p₁:  3.03000 [Å]
                                   shift:  -0.04002 [K], tailcorrections: false
C3       - O5       Lennard-Jones  p₀/kʙ:  38.61136 [K], p₁:  3.03000 [Å]
                                   shift:  -0.04002 [K], tailcorrections: false
C3       - O6       Lennard-Jones  p₀/kʙ:  38.61136 [K], p₁:  3.03000 [Å]
                                   shift:  -0.04002 [K], tailcorrections: false
C3       - O7       Lennard-Jones  p₀/kʙ:  38.61136 [K], p₁:  3.03000 [Å]
                                   shift:  -0.04002 [K], tailcorrections: false
C3       - O8       Lennard-Jones  p₀/kʙ:  38.61136 [K], p₁:  3.03000 [Å]
                                   shift:  -0.04002 [K], tailcorrections: false
C3       - O9       Lennard-Jones  p₀/kʙ:  38.61136 [K], p₁:  3.03000 [Å]
                                   shift:  -0.04002 [K], tailcorrections: false
C3       - O10      Lennard-Jones  p₀/kʙ:  38.61136 [K], p₁:  3.03000 [Å]
                                   shift:  -0.04002 [K], tailcorrections: false
C3       - O11      Lennard-Jones  p₀/kʙ:  38.61136 [K], p₁:  3.03000 [Å]
                                   shift:  -0.04002 [K], tailcorrections: false
C3       - O12      Lennard-Jones  p₀/kʙ:  38.61136 [K], p₁:  3.03000 [Å]
                                   shift:  -0.04002 [K], tailcorrections: false
C3       - O13      Lennard-Jones  p₀/kʙ:  38.61136 [K], p₁:  3.03000 [Å]
                                   shift:  -0.04002 [K], tailcorrections: false
C3       - O14      Lennard-Jones  p₀/kʙ:  38.61136 [K], p₁:  3.03000 [Å]
                                   shift:  -0.04002 [K], tailcorrections: false
C3       - O15      Lennard-Jones  p₀/kʙ:  38.61136 [K], p₁:  3.03000 [Å]
                                   shift:  -0.04002 [K], tailcorrections: false
C3       - O16      Lennard-Jones  p₀/kʙ:  38.61136 [K], p₁:  3.03000 [Å]
                                   shift:  -0.04002 [K], tailcorrections: false
C3       - O17      Lennard-Jones  p₀/kʙ:  38.61136 [K], p₁:  3.03000 [Å]
                                   shift:  -0.04002 [K], tailcorrections: false
C3       - O18      Lennard-Jones  p₀/kʙ:  38.61136 [K], p₁:  3.03000 [Å]
                                   shift:  -0.04002 [K], tailcorrections: false
C3       - O19      Lennard-Jones  p₀/kʙ:  38.61136 [K], p₁:  3.03000 [Å]
                                   shift:  -0.04002 [K], tailcorrections: false
C3       - O20      Lennard-Jones  p₀/kʙ:  38.61136 [K], p₁:  3.03000 [Å]
                                   shift:  -0.04002 [K], tailcorrections: false
C3       - O21      Lennard-Jones  p₀/kʙ:  38.61136 [K], p₁:  3.03000 [Å]
                                   shift:  -0.04002 [K], tailcorrections: false
C3       - O22      Lennard-Jones  p₀/kʙ:  38.61136 [K], p₁:  3.03000 [Å]
                                   shift:  -0.04002 [K], tailcorrections: false
C3       - O23      Lennard-Jones  p₀/kʙ:  38.61136 [K], p₁:  3.03000 [Å]
                                   shift:  -0.04002 [K], tailcorrections: false
C3       - O24      Lennard-Jones  p₀/kʙ:  38.61136 [K], p₁:  3.03000 [Å]
                                   shift:  -0.04002 [K], tailcorrections: false
C3       - O25      Lennard-Jones  p₀/kʙ:  38.61136 [K], p₁:  3.03000 [Å]
                                   shift:  -0.04002 [K], tailcorrections: false
C3       - O26      Lennard-Jones  p₀/kʙ:  38.61136 [K], p₁:  3.03000 [Å]
                                   shift:  -0.04002 [K], tailcorrections: false
C3       - O27      Lennard-Jones  p₀/kʙ:  38.61136 [K], p₁:  3.03000 [Å]
                                   shift:  -0.04002 [K], tailcorrections: false
C3       - O28      Lennard-Jones  p₀/kʙ:  38.61136 [K], p₁:  3.03000 [Å]
                                   shift:  -0.04002 [K], tailcorrections: false
C3       - O29      Lennard-Jones  p₀/kʙ:  38.61136 [K], p₁:  3.03000 [Å]
                                   shift:  -0.04002 [K], tailcorrections: false
C3       - O30      Lennard-Jones  p₀/kʙ:  38.61136 [K], p₁:  3.03000 [Å]
                                   shift:  -0.04002 [K], tailcorrections: false
C3       - O31      Lennard-Jones  p₀/kʙ:  38.61136 [K], p₁:  3.03000 [Å]
                                   shift:  -0.04002 [K], tailcorrections: false
C3       - O32      Lennard-Jones  p₀/kʙ:  38.61136 [K], p₁:  3.03000 [Å]
                                   shift:  -0.04002 [K], tailcorrections: false
C3       - Zr1      Lennard-Jones  p₀/kʙ:  31.25221 [K], p₁:  2.77157 [Å]
                                   shift:  -0.01897 [K], tailcorrections: false
C3       - Zr2      Lennard-Jones  p₀/kʙ:  31.25221 [K], p₁:  2.77157 [Å]
                                   shift:  -0.01897 [K], tailcorrections: false
C3       - Zr3      Lennard-Jones  p₀/kʙ:  31.25221 [K], p₁:  2.77157 [Å]
                                   shift:  -0.01897 [K], tailcorrections: false
C3       - Zr4      Lennard-Jones  p₀/kʙ:  31.25221 [K], p₁:  2.77157 [Å]
                                   shift:  -0.01897 [K], tailcorrections: false
C3       - Zr5      Lennard-Jones  p₀/kʙ:  31.25221 [K], p₁:  2.77157 [Å]
                                   shift:  -0.01897 [K], tailcorrections: false
C3       - Zr6      Lennard-Jones  p₀/kʙ:  31.25221 [K], p₁:  2.77157 [Å]
                                   shift:  -0.01897 [K], tailcorrections: false
C3       - C_co2    Lennard-Jones  p₀/kʙ:  28.12900 [K], p₁:  2.76000 [Å]
                                   shift:  -0.01665 [K], tailcorrections: false
C3       - O_co2    Lennard-Jones  p₀/kʙ:  47.58762 [K], p₁:  2.89650 [Å]
                                   shift:  -0.03764 [K], tailcorrections: false
C4       - C4       Lennard-Jones  p₀/kʙ:  28.12900 [K], p₁:  2.76000 [Å]
                                   shift:  -0.01665 [K], tailcorrections: false
C4       - C5       Lennard-Jones  p₀/kʙ:  28.12900 [K], p₁:  2.76000 [Å]
                                   shift:  -0.01665 [K], tailcorrections: false
C4       - C6       Lennard-Jones  p₀/kʙ:  28.12900 [K], p₁:  2.76000 [Å]
                                   shift:  -0.01665 [K], tailcorrections: false
C4       - C7       Lennard-Jones  p₀/kʙ:  28.12900 [K], p₁:  2.76000 [Å]
                                   shift:  -0.01665 [K], tailcorrections: false
C4       - C8       Lennard-Jones  p₀/kʙ:  28.12900 [K], p₁:  2.76000 [Å]
                                   shift:  -0.01665 [K], tailcorrections: false
C4       - C9       Lennard-Jones  p₀/kʙ:  28.12900 [K], p₁:  2.76000 [Å]
                                   shift:  -0.01665 [K], tailcorrections: false
C4       - C10      Lennard-Jones  p₀/kʙ:  28.12900 [K], p₁:  2.76000 [Å]
                                   shift:  -0.01665 [K], tailcorrections: false
C4       - C11      Lennard-Jones  p₀/kʙ:  28.12900 [K], p₁:  2.76000 [Å]
                                   shift:  -0.01665 [K], tailcorrections: false
C4       - C12      Lennard-Jones  p₀/kʙ:  28.12900 [K], p₁:  2.76000 [Å]
                                   shift:  -0.01665 [K], tailcorrections: false
C4       - C13      Lennard-Jones  p₀/kʙ:  28.12900 [K], p₁:  2.76000 [Å]
                                   shift:  -0.01665 [K], tailcorrections: false
C4       - C14      Lennard-Jones  p₀/kʙ:  28.12900 [K], p₁:  2.76000 [Å]
                                   shift:  -0.01665 [K], tailcorrections: false
C4       - C15      Lennard-Jones  p₀/kʙ:  28.12900 [K], p₁:  2.76000 [Å]
                                   shift:  -0.01665 [K], tailcorrections: false
C4       - C16      Lennard-Jones  p₀/kʙ:  28.12900 [K], p₁:  2.76000 [Å]
                                   shift:  -0.01665 [K], tailcorrections: false
C4       - C17      Lennard-Jones  p₀/kʙ:  28.12900 [K], p₁:  2.76000 [Å]
                                   shift:  -0.01665 [K], tailcorrections: false
C4       - C18      Lennard-Jones  p₀/kʙ:  28.12900 [K], p₁:  2.76000 [Å]
                                   shift:  -0.01665 [K], tailcorrections: false
C4       - C19      Lennard-Jones  p₀/kʙ:  28.12900 [K], p₁:  2.76000 [Å]
                                   shift:  -0.01665 [K], tailcorrections: false
C4       - C20      Lennard-Jones  p₀/kʙ:  28.12900 [K], p₁:  2.76000 [Å]
                                   shift:  -0.01665 [K], tailcorrections: false
C4       - C21      Lennard-Jones  p₀/kʙ:  28.12900 [K], p₁:  2.76000 [Å]
                                   shift:  -0.01665 [K], tailcorrections: false
C4       - C22      Lennard-Jones  p₀/kʙ:  28.12900 [K], p₁:  2.76000 [Å]
                                   shift:  -0.01665 [K], tailcorrections: false
C4       - C23      Lennard-Jones  p₀/kʙ:  28.12900 [K], p₁:  2.76000 [Å]
                                   shift:  -0.01665 [K], tailcorrections: false
C4       - C24      Lennard-Jones  p₀/kʙ:  28.12900 [K], p₁:  2.76000 [Å]
                                   shift:  -0.01665 [K], tailcorrections: false
C4       - C25      Lennard-Jones  p₀/kʙ:  28.12900 [K], p₁:  2.76000 [Å]
                                   shift:  -0.01665 [K], tailcorrections: false
C4       - C26      Lennard-Jones  p₀/kʙ:  28.12900 [K], p₁:  2.76000 [Å]
                                   shift:  -0.01665 [K], tailcorrections: false
C4       - C27      Lennard-Jones  p₀/kʙ:  28.12900 [K], p₁:  2.76000 [Å]
                                   shift:  -0.01665 [K], tailcorrections: false
C4       - C28      Lennard-Jones  p₀/kʙ:  28.12900 [K], p₁:  2.76000 [Å]
[...]
Component 0 (CO2)
    absolute adsorption: 0.000000e+00 molecules (0.000000e+00 +/- 0.000000e+00)
                         0.000000e+00 molec./uc (0.000000e+00 +/- 0.000000e+00)
                         0.000000e+00 mol/kg    (0.000000e+00 +/- 0.000000e+00)
                         0.000000e+00 mg/g      (0.000000e+00 +/- 0.000000e+00)
    excess adsorption:   0.000000e+00 molecules (0.000000e+00 +/- 0.000000e+00)
                         0.000000e+00 molec./uc (0.000000e+00 +/- 0.000000e+00)
                         0.000000e+00 mol/kg    (0.000000e+00 +/- 0.000000e+00)
                         0.000000e+00 mg/g      (0.000000e+00 +/- 0.000000e+00)

Total potential energy/kʙ   0.000000e+00 ( 0.000000e+00 +/- 0.000000e+00) [K]
-------------------------------------------------------------------------------
ExternalField-molecule
    Van der Waals/kʙ        0.000000e+00 ( 0.000000e+00 +/- 0.000000e+00) [K]
Framework-molecule
    Van der Waals/kʙ        0.000000e+00 ( 0.000000e+00 +/- 0.000000e+00) [K]
    Van der Waals (Tail)/kʙ 0.000000e+00 ( 0.000000e+00 +/- 0.000000e+00) [K]
    Coulombic Real/kʙ       0.000000e+00 ( 0.000000e+00 +/- 0.000000e+00) [K]
    Coulombic Fourier/kʙ    0.000000e+00 ( 0.000000e+00 +/- 0.000000e+00) [K]
Molecule-molecule
    Van der Waals/kʙ        0.000000e+00 ( 0.000000e+00 +/- 0.000000e+00) [K]
    Van der Waals (Tail)/kʙ 0.000000e+00 ( 0.000000e+00 +/- 0.000000e+00) [K]
    Coulombic Real/kʙ       0.000000e+00 ( 0.000000e+00 +/- 0.000000e+00) [K]
    Coulombic Fourier/kʙ    0.000000e+00 ( 0.000000e+00 +/- 0.000000e+00) [K]
    Molecule Intra/kʙ       0.000000e+00 ( 0.000000e+00 +/- 0.000000e+00) [K]
Polarization energy/kʙ      0.000000e+00 ( 0.000000e+00 +/- 0.000000e+00) [K]


===============================================================================
                             Simulation finished!
===============================================================================

Final state after 5000 cycles
===============================================================================

Box:      29.63480  14.81740  14.81740  Average:  29.63480  14.81740  14.81740
           0.00000  25.66449   8.55483             0.00000  25.66449   8.55483
           0.00000   0.00000  24.19671             0.00000   0.00000  24.19671
Lengths:  29.63480  29.63480  29.63480  Average:  29.63480  29.63480  29.63480
Angles:   60.00000  60.00000  60.00000  Average:  60.00000  60.00000  60.00000
Triclinic boundary conditions

Net charge:   0.00000800

component 0 (CO2) lambda:  0 occupancy:  1 (1.000000)
    net charge:   0.00000000 [e]

Amount of molecules per component:
-------------------------------------------------------------------------------
Component 0 (CO2)
    absolute adsorption: 0.000000e+00 molecules (0.000000e+00 +/- 0.000000e+00)
                         0.000000e+00 molec./uc (0.000000e+00 +/- 0.000000e+00)
                         0.000000e+00 mol/kg    (0.000000e+00 +/- 0.000000e+00)
                         0.000000e+00 mg/g      (0.000000e+00 +/- 0.000000e+00)
    excess adsorption:   0.000000e+00 molecules (0.000000e+00 +/- 0.000000e+00)
                         0.000000e+00 molec./uc (0.000000e+00 +/- 0.000000e+00)
                         0.000000e+00 mol/kg    (0.000000e+00 +/- 0.000000e+00)
                         0.000000e+00 mg/g      (0.000000e+00 +/- 0.000000e+00)

Total potential energy/kʙ   0.000000e+00 ( 0.000000e+00 +/- 0.000000e+00) [K]
-------------------------------------------------------------------------------
ExternalField-molecule
    Van der Waals/kʙ        0.000000e+00 ( 0.000000e+00 +/- 0.000000e+00) [K]
Framework-molecule
    Van der Waals/kʙ        0.000000e+00 ( 0.000000e+00 +/- 0.000000e+00) [K]
    Van der Waals (Tail)/kʙ 0.000000e+00 ( 0.000000e+00 +/- 0.000000e+00) [K]
    Coulombic Real/kʙ       0.000000e+00 ( 0.000000e+00 +/- 0.000000e+00) [K]
    Coulombic Fourier/kʙ    0.000000e+00 ( 0.000000e+00 +/- 0.000000e+00) [K]
Molecule-molecule
    Van der Waals/kʙ        0.000000e+00 ( 0.000000e+00 +/- 0.000000e+00) [K]
    Van der Waals (Tail)/kʙ 0.000000e+00 ( 0.000000e+00 +/- 0.000000e+00) [K]
    Coulombic Real/kʙ       0.000000e+00 ( 0.000000e+00 +/- 0.000000e+00) [K]
    Coulombic Fourier/kʙ    0.000000e+00 ( 0.000000e+00 +/- 0.000000e+00) [K]
    Molecule Intra/kʙ       0.000000e+00 ( 0.000000e+00 +/- 0.000000e+00) [K]
Polarization energy/kʙ      0.000000e+00 ( 0.000000e+00 +/- 0.000000e+00) [K]


Energy statistics             |  Energy [K]   | Recomputed [K]|  Drift [K]    |
===============================================================================
Total potential energy/kʙ     |  0.000000e+00 |  0.000000e+00 |  0.000000e+00 |
    external field VDW/kʙ     |  0.000000e+00 |  0.000000e+00 |  0.000000e+00 |
    external field Real/kʙ    |  0.000000e+00 |  0.000000e+00 |  0.000000e+00 |
    framework-molecule VDW/kʙ |  0.000000e+00 |  0.000000e+00 |  0.000000e+00 |
    framework-molecule Real/kʙ|  0.000000e+00 |  0.000000e+00 |  0.000000e+00 |
    molecule-molecule VDW/kʙ  |  0.000000e+00 |  0.000000e+00 |  0.000000e+00 |
    molecule-molecule Real/kʙ |  0.000000e+00 |  0.000000e+00 |  0.000000e+00 |
    Van der Waals (Tail)/kʙ   |  0.000000e+00 |  0.000000e+00 |  0.000000e+00 |
    Ewald Fourier/kʙ          |  0.000000e+00 |  0.000000e+00 |  0.000000e+00 |
    Ewald self/kʙ             |  0.000000e+00 |  0.000000e+00 |  0.000000e+00 |
    Ewald exclusion/kʙ        |  0.000000e+00 |  0.000000e+00 |  0.000000e+00 |
    bond/kʙ                   |  0.000000e+00 |  0.000000e+00 |  0.000000e+00 |
    Urey-Bradley/kʙ           |  0.000000e+00 |  0.000000e+00 |  0.000000e+00 |
    bend/kʙ                   |  0.000000e+00 |  0.000000e+00 |  0.000000e+00 |
    inversion bend/kʙ         |  0.000000e+00 |  0.000000e+00 |  0.000000e+00 |
    out-of-plane bend/kʙ      |  0.000000e+00 |  0.000000e+00 |  0.000000e+00 |
    torsion/kʙ                |  0.000000e+00 |  0.000000e+00 |  0.000000e+00 |
    improper torsion/kʙ       |  0.000000e+00 |  0.000000e+00 |  0.000000e+00 |
    bond-bond/kʙ              |  0.000000e+00 |  0.000000e+00 |  0.000000e+00 |
    bond-bend/kʙ              |  0.000000e+00 |  0.000000e+00 |  0.000000e+00 |
    bond-torsion/kʙ           |  0.000000e+00 |  0.000000e+00 |  0.000000e+00 |
    bend-bend/kʙ              |  0.000000e+00 |  0.000000e+00 |  0.000000e+00 |
    bend-torsion/kʙ           |  0.000000e+00 |  0.000000e+00 |  0.000000e+00 |
    intra VDW/kʙ              |  0.000000e+00 |  0.000000e+00 |  0.000000e+00 |
    intra Coulombic/kʙ        |  0.000000e+00 |  0.000000e+00 |  0.000000e+00 |
    polarization/kʙ           |  0.000000e+00 |  0.000000e+00 |  0.000000e+00 |
    dU/dlambda VDW/kʙ         |  0.000000e+00 |  0.000000e+00 |  0.000000e+00 |
    dU/dlambda Real/kʙ        |  0.000000e+00 |  0.000000e+00 |  0.000000e+00 |
    dU/dlambda Ewald/kʙ       |  0.000000e+00 |  0.000000e+00 |  0.000000e+00 |
-------------------------------------------------------------------------------


Monte-Carlo moves statistics
===============================================================================

Component 0 [CO2]
    Widom                all:              100000
    Widom                total:             1e+05
    Widom                constructed:       97981
    Widom                accepted:              0
    Widom                fraction:       0.000000
    Widom                max-change:     0.000000

    Widom insertion Rosenbluth weight statistics:
    ---------------------------------------------------------------------------
        Block[  0]  1.909753e+01
        Block[  1]  1.387380e+01
        Block[  2]  1.962275e+01
        Block[  3]  1.399486e+01
        Block[  4]  1.625539e+01
    ---------------------------------------------------------------------------
    Average Rosenbluth weight:    1.656886e+01 +/-  3.383277e+00 [-]


    Henry coefficient based on Rosenbluth weight:
    ---------------------------------------------------------------------------
        Block[  0]  5.920019e-06
        Block[  1]  4.300721e-06
        Block[  2]  6.082833e-06
        Block[  3]  4.338250e-06
        Block[  4]  5.038989e-06
    ---------------------------------------------------------------------------
    Average Henry coefficient:    5.136163e-06 +/-  1.048778e-06 [mol/kg/Pa]
    Average Henry coefficient:    8.546886e-06 +/-  1.745230e-06 [molec./uc/Pa]


    Widom insertion chemical potential statistics:
    ---------------------------------------------------------------------------
        Block[  0] -952.7083464851816
        Block[  1] -849.491358015063
        Block[  2] -961.4716009541594
        Block[  3] -852.2976718017137
        Block[  4] -900.6619257250288
    ---------------------------------------------------------------------------
    Excess chemical potential:          -9.068315e+02 +/-  6.624736e+01 [K]
    Ideal chemical potential:           -inf +/- -nan [K]
    Total chemical potential:           -inf +/- -nan [K]
    Imposed chemical potential:         -inf [K]
    ---------------------------------------------------------------------------
    Excess chemical potential:          -7.539819e+00 +/-  5.508114e-01 [kJ/mol]
    Ideal chemical potential:           -inf +/- -nan [kJ/mol]
    Total chemical potential:           -inf +/- -nan [kJ/mol]
    Imposed chemical potential:         -inf [kJ/mol]

    Widom insertion fugacity statistics:
    ---------------------------------------------------------------------------
        Block[  0] 0
        Block[  1] 0
        Block[  2] 0
        Block[  3] 0
        Block[  4] 0
    ---------------------------------------------------------------------------
    Measured fugacity:           0.000000e+00 +/-  0.000000e+00 [Pa]
    Imposed fugacity:          0.000000e+00 [K]




Production run counting of the MC moves summed over systems and components
===============================================================================

Widom                                100000 (100.0000 [%])

Production count MC-steps:           100000 [-]
               All summed:           100000 [-]
               difference:                0 [-]


Production run CPU timings of the MC moves
===============================================================================

Component 0 CO2

Widom                                64.099719 [s]
    Ewald                             1.613743 [s]
    NonEwald                         62.174429 [s]
    Tail                              0.280267 [s]
    Overhead                          0.031280 [s]



Property sampling                     0.045337 [s]
Energy/pressure sampling:             0.184066 [s]


Production run CPU timings of the MC moves summed over systems and components
===============================================================================


Widom                                64.099719 [s]
    Ewald                             1.613743 [s]
    NonEwald                         62.174429 [s]
    Tail                              0.280267 [s]
    Overhead                          0.031280 [s]

Property sampling:                    0.045337 [s]
Energy/pressure sampling:             0.184066 [s]

Production simulation time:          64.367689 [s]
                All summed:          64.329122 [s]
                  Overhead:           0.038568 [s]


Initalization simulation time:        0.000000 [s]
Equilibration simulation time:        0.000000 [s]
Production simulation time:          64.367689 [s]
Total simulation time:               64.367689 [s]


Energy averages and statistics:
===============================================================================

Framework-molecule energy:
-------------------------------------------------------------------------------

    Framework-molecule energy/kʙ 0-0 [CO2]:
    ---------------------------------------------------------------------------
        Block[  0]  0.000000e+00
        Block[  1]  0.000000e+00
        Block[  2]  0.000000e+00
        Block[  3]  0.000000e+00
        Block[  4]  0.000000e+00
        -----------------------------------------------------------------------
        Average   0.000000e+00 +/-  0.000000e+00 [K]



Framework-molecule energy contributions per energy type:
-------------------------------------------------------------------------------

    Van der Waals energy/kʙ 0-0 [CO2]:
    ---------------------------------------------------------------------------
        Block[  0]  0.000000e+00
        Block[  1]  0.000000e+00
        Block[  2]  0.000000e+00
        Block[  3]  0.000000e+00
        Block[  4]  0.000000e+00
        -----------------------------------------------------------------------
        Average   0.000000e+00 +/-  0.000000e+00 [K]

    VDW Tail-Correction energy/kʙ 0-0 [CO2]:
    ---------------------------------------------------------------------------
        Block[  0]  0.000000e+00
        Block[  1]  0.000000e+00
        Block[  2]  0.000000e+00
        Block[  3]  0.000000e+00
        Block[  4]  0.000000e+00
        -----------------------------------------------------------------------
        Average   0.000000e+00 +/-  0.000000e+00 [K]

    Coulomb Real energy/kʙ 0-0 [CO2]:
    ---------------------------------------------------------------------------
        Block[  0]  0.000000e+00
        Block[  1]  0.000000e+00
        Block[  2]  0.000000e+00
        Block[  3]  0.000000e+00
        Block[  4]  0.000000e+00
        -----------------------------------------------------------------------
        Average   0.000000e+00 +/-  0.000000e+00 [K]

    Coulomb Fourier energy/kʙ 0-0 [CO2]:
    ---------------------------------------------------------------------------
        Block[  0]  0.000000e+00
        Block[  1]  0.000000e+00
        Block[  2]  0.000000e+00
        Block[  3]  0.000000e+00
        Block[  4]  0.000000e+00
        -----------------------------------------------------------------------
        Average   0.000000e+00 +/-  0.000000e+00 [K]



Inter-molecular energy:
-------------------------------------------------------------------------------

    Inter-molecular energy/kʙ 0-0 [CO2-CO2]:
    ---------------------------------------------------------------------------
        Block[  0]  0.000000e+00
        Block[  1]  0.000000e+00
        Block[  2]  0.000000e+00
        Block[  3]  0.000000e+00
        Block[  4]  0.000000e+00
        -----------------------------------------------------------------------
        Average   0.000000e+00 +/-  0.000000e+00 [K]



Inter-molecular energy contributions per energy type:
-------------------------------------------------------------------------------

    Van der Waals energy/kʙ 0-0 [CO2-CO2]:
    ---------------------------------------------------------------------------
        Block[  0]  0.000000e+00
        Block[  1]  0.000000e+00
        Block[  2]  0.000000e+00
        Block[  3]  0.000000e+00
        Block[  4]  0.000000e+00
        -----------------------------------------------------------------------
        Average   0.000000e+00 +/-  0.000000e+00 [K]

    VDW Tail-Correction energy/kʙ 0-0 [CO2-CO2]:
    ---------------------------------------------------------------------------
        Block[  0]  0.000000e+00
        Block[  1]  0.000000e+00
        Block[  2]  0.000000e+00
        Block[  3]  0.000000e+00
        Block[  4]  0.000000e+00
        -----------------------------------------------------------------------
        Average   0.000000e+00 +/-  0.000000e+00 [K]

    Coulomb Real energy/kʙ 0-0 [CO2-CO2]:
    ---------------------------------------------------------------------------
        Block[  0]  0.000000e+00
        Block[  1]  0.000000e+00
        Block[  2]  0.000000e+00
        Block[  3]  0.000000e+00
        Block[  4]  0.000000e+00
        -----------------------------------------------------------------------
        Average   0.000000e+00 +/-  0.000000e+00 [K]

    Coulomb Fourier energy/kʙ 0-0 [CO2-CO2]:
    ---------------------------------------------------------------------------
        Block[  0]  0.000000e+00
        Block[  1]  0.000000e+00
        Block[  2]  0.000000e+00
        Block[  3]  0.000000e+00
        Block[  4]  0.000000e+00
        -----------------------------------------------------------------------
        Average   0.000000e+00 +/-  0.000000e+00 [K]

Intra-molecular energies per energy type:
-------------------------------------------------------------------------------


Kinetic Energies:
-------------------------------------------------------------------------------

    Translational Kinetic energy/kʙ
    ---------------------------------------------------------------------------
        Block[  0]  0.000000e+00
        Block[  1]  0.000000e+00
        Block[  2]  0.000000e+00
        Block[  3]  0.000000e+00
        Block[  4]  0.000000e+00
        -----------------------------------------------------------------------
        Average   0.000000e+00 +/-  0.000000e+00 [K]

    Rotational Kinetic energy/kʙ
    ---------------------------------------------------------------------------
        Block[  0]  0.000000e+00
        Block[  1]  0.000000e+00
        Block[  2]  0.000000e+00
        Block[  3]  0.000000e+00
        Block[  4]  0.000000e+00
        -----------------------------------------------------------------------
        Average   0.000000e+00 +/-  0.000000e+00 [K]

    Nose Hoover energy/kʙ
    ---------------------------------------------------------------------------
        Block[  0]  0.000000e+00
        Block[  1]  0.000000e+00
        Block[  2]  0.000000e+00
        Block[  3]  0.000000e+00
        Block[  4]  0.000000e+00
        -----------------------------------------------------------------------
        Average   0.000000e+00 +/-  0.000000e+00 [K]

Polarization energy/kʙ
-------------------------------------------------------------------------------
    Block[  0]  0.000000e+00
    Block[  1]  0.000000e+00
    Block[  2]  0.000000e+00
    Block[  3]  0.000000e+00
    Block[  4]  0.000000e+00
    ---------------------------------------------------------------------------
    Average   0.000000e+00 +/-  0.000000e+00 [K]

Total energy/kʙ
-------------------------------------------------------------------------------
    Block[  0]  0.000000e+00
    Block[  1]  0.000000e+00
    Block[  2]  0.000000e+00
    Block[  3]  0.000000e+00
    Block[  4]  0.000000e+00
    ---------------------------------------------------------------------------
    Average   0.000000e+00 +/-  0.000000e+00 [K]

Enthalpy of adsorption
===============================================================================

No fluctuating components present.


LoadingData
===============================================================================

Component 0 (CO2)
    Block[  0]  0.000000e+00
    Block[  1]  0.000000e+00
    Block[  2]  0.000000e+00
    Block[  3]  0.000000e+00
    Block[  4]  0.000000e+00
    ---------------------------------------------------------------------------
    Abs. loading average   0.000000e+00 +/-  0.000000e+00 [molecules/cell]
    Abs. loading average   0.000000e+00 +/-  0.000000e+00 [molecules/uc]
    Abs. loading average   0.000000e+00 +/-  0.000000e+00 [mol/kg-framework]
    Abs. loading average   0.000000e+00 +/-  0.000000e+00 [mg/g-framework]

    Block[  0]  0.000000e+00
    Block[  1]  0.000000e+00
    Block[  2]  0.000000e+00
    Block[  3]  0.000000e+00
    Block[  4]  0.000000e+00
    ---------------------------------------------------------------------------
    Excess loading average   0.000000e+00 +/-  0.000000e+00 [molecules/cell]
    Excess loading average   0.000000e+00 +/-  0.000000e+00 [molecules/uc]
    Excess loading average   0.000000e+00 +/-  0.000000e+00 [mol/kg-framework]
    Excess loading average   0.000000e+00 +/-  0.000000e+00 [mg/g-framework]



