Compiler and run-time data
===============================================================================
RASPA 3.0.29

Random seed: 14676207

Compiled as a 64-bits application
Compiler: gcc Clang 19.1.7 (https://github.com/conda-forge/clangdev-feedstock 3c5e7de432e909e225d8040e72a44724afb0c446)
Compile Date = May  8 2026, Compile Time = 02:11:23

2026-06-20 23:36:21.903853050
Simulation started on Sat, Jun 20
The start time was 23:36:00

Hostname:    wselimited-3
OS type:     Linux on x86_64
OS release:  6.8.0-111-generic
OS version:  #111~22.04.1-Ubuntu SMP PREEMPT_DYNAMIC Tue Apr 14 17:13:45 UTC 


Mutual consistent basic set of units:
===============================================================================

Unit of temperature: 1 [K]
Unit of length:      1e-10 [m]
Unit of time:        1e-12 [s]
Unit of mass:        1.6605402e-27 [kg]
Unit of charge:      1.60217733e-19 [C/particle]


Boltzmann constant (internal units):          0.8314464919307584 [-]
represents conversion from energy (internal units) to temperature (in Kelvin)

Derived units and their conversion factors:
===============================================================================

Unit of energy:                           1.6605402000000002e-23 [J]
Unit of energy:                           10.000008872307538 [J.mol⁻¹]
Unit of velocity:                         100 [m.s⁻¹]
Unit of force:                            1.6605402000000002e-13 [N]
Unit of diffusion:                        1e-08 [m².s⁻¹]
Unit of acceleration:                     1e-08 [m².s⁻¹]
Unit of torque:                           1.6605402000000002e-23 [N.m]
Unit of pressure:                         16605402 [Pa]
Unit of volume:                           1e-30 [m³]
Unit of density:                          1660.5402 [kg.m⁻³]
Unit of dynamic viscosity:                1.6605401999999997e-05 [N.s.m⁻²]
Unit of enthalpy:                         1.6605402000000002e-23 [J]
Unit of polarizability:                   1.5458657349975198e-35 [-]
Unit of Coulomb potential:                167101.08000665612 [K]
Unit of dielectric constant:              1.5458657349975193e-05 [s².C².kg⁻¹.m⁻³]
Unit of dipole moment:                    1.60217733e-29 [C.m]
Unit of Debye:                            4.803206799099162 [C.m]
Unit of electric potential:               0.00010364272224473431 [V]
Unit of electric field:                   1036427.222447343 [V.m⁻¹]
Unit of isothermal compressibility:       6.02213665167516e-08 [Pa⁻¹]
Unit of heat capacity:                    10.000008872307538 [J.mol⁻¹.K⁻¹]
Unit of volumetric expansion coefficient: 1 [K⁻¹]


Internal conversion factors:
===============================================================================

Energy (internal units) to Kelvin:      1.202724284692786 [-]
Kelvin to energy (internal units):      0.8314457542157567 [-]


System definitions
===============================================================================

Temperature:          298.15 [K]
Beta:                 0.004033953438052208 [-]
Pressure:             0 [Pa]
Helium void fraction: 1 [-]

Box:      27.35000 -13.67500   0.00000
           0.00000  23.68579   0.00000
           0.00000   0.00000  29.53400
Lengths:  27.35000  27.35000  29.53400
Angles:   90.00000  90.00000 120.00000
Triclinic boundary conditions
Perpendicular widths:   23.68579  23.68579  29.53400




Property measurement settings
===============================================================================




Pseudo-atoms
===============================================================================

  0 - O        framework-atom: true
  1 - Si       framework-atom: true
  2 - C_co2    framework-atom: false
  3 - O_co2    framework-atom: false

  0 - O        mass: 15.99940, charge: -1.02500
  1 - Si       mass: 28.08550, charge:  2.05000
  2 - C_co2    mass: 12.01070, charge:  0.70000
  3 - O_co2    mass: 15.99940, charge: -0.35000

  0 - O        polarizability:  0.00000
  1 - Si       polarizability:  0.00000
  2 - C_co2    polarizability:  0.00000
  3 - O_co2    polarizability:  0.00000

  0 - Jaramillo-Auerbach 1999 via García-Pérez 2007
  1 - Jaramillo-Auerbach 1999 via García-Pérez 2007
  2 - TraPPE-CO2 (Potoff-Siepmann 2001) TASK13 4c
  3 - TraPPE-CO2 (Potoff-Siepmann 2001) TASK13 4c

Force field status
===============================================================================

Cutoff Framework-Molecule VDW:  14.00000 [Å]
Cutoff Molecule-Molecule VDW:   14.00000 [Å]
Cutoff Coulomb:                 14.00000 [Å]

Overlap-criteria VDW:           1.000000e+06 [K]

Mixing-rule: Lorentz-Berthelot
O        - O        Lennard-Jones  p₀/kʙ:  53.00000 [K], p₁:  3.30000 [Å]
                                   shift:  -0.03636 [K], tailcorrections: true
O        - Si       Lennard-Jones  p₀/kʙ:  34.14674 [K], p₁:  2.80000 [Å]
                                   shift:  -0.00874 [K], tailcorrections: true
O        - C_co2    Lennard-Jones  p₀/kʙ:  37.82856 [K], p₁:  3.05000 [Å]
                                   shift:  -0.01618 [K], tailcorrections: true
O        - O_co2    Lennard-Jones  p₀/kʙ:  64.70703 [K], p₁:  3.17500 [Å]
                                   shift:  -0.03521 [K], tailcorrections: true
Si       - Si       Lennard-Jones  p₀/kʙ:  22.00000 [K], p₁:  2.30000 [Å]
                                   shift:  -0.00173 [K], tailcorrections: true
Si       - C_co2    Lennard-Jones  p₀/kʙ:  24.37212 [K], p₁:  2.55000 [Å]
                                   shift:  -0.00356 [K], tailcorrections: true
Si       - O_co2    Lennard-Jones  p₀/kʙ:  41.68933 [K], p₁:  2.67500 [Å]
                                   shift:  -0.00811 [K], tailcorrections: true
C_co2    - C_co2    Lennard-Jones  p₀/kʙ:  27.00000 [K], p₁:  2.80000 [Å]
                                   shift:  -0.00691 [K], tailcorrections: true
C_co2    - O_co2    Lennard-Jones  p₀/kʙ:  46.18441 [K], p₁:  2.92500 [Å]
                                   shift:  -0.01536 [K], tailcorrections: true
O_co2    - O_co2    Lennard-Jones  p₀/kʙ:  79.00000 [K], p₁:  3.05000 [Å]
                                   shift:  -0.03378 [K], tailcorrections: true

Ewald precision: 1e-06
Ewald alpha: 0.2255328004666878
Ewald k-vectors: 6 6 7


Component definitions
===============================================================================

Framework 0 [CHA_iza]

    Box:      13.67500  -6.83750   0.00000
               0.00000  11.84290   0.00000
               0.00000   0.00000  14.76700
    Lengths:  13.67500  13.67500  14.76700
    Angles:   90.00000  90.00000 120.00000
    Perpendicular widths:   11.84290  11.84290  14.76700

    number Of Atoms:                   108 [-]
    mass:                      17304.27840 [amu]
      0: O      position  0.90200  0.09800  0.12270, charge -1.02500
      1: O      position  0.97670  0.31010  0.16670, charge -1.02500
      2: O      position  0.12030  0.24050  0.13150, charge -1.02500
      3: O      position  0.00000  0.25770  0.00000, charge -1.02500
      4: Si     position  0.99970  0.22640  0.10510, charge  2.05000
    net charge:                     -0.00000 [e]
    smallest charge:                -1.02500 [e]
    largest charge:                  2.05000 [e]
    number of bonds: 0

Component 0 [CO2]

    Type: Adsorbate

    Critical temperature:  304.1 [K]
    Critical pressure:     7380000 [Pa]
    Acentric factor:       0.225 [-]

    Mol-fraction:                 1 [-]
    Swappable:                   false

    Mass:                         44.0095 [-]
    Fugacity:                     0 [Pa]
    Bulk fluid density:           0 [-]
    Compressibility:              0 [-]
    Excess molecules:             0 [-]

    Number Of Atoms:              3
    CBMC starting bead:           0
    Ideal gas Rosenbluth weight:  1.00000000
      0: C_co2  position  0.00000 -0.00000  0.00000, charge  0.70000
      1: O_co2  position  0.00000 -0.00000  1.16000, charge -0.35000
      2: O_co2  position  0.00000 -0.00000 -1.16000, charge -0.35000
    Diagonalized inertia-vector:      43.05758528 43.05758528 0.00000000
    Translational degrees of freedom: 3
    Rotational degrees of freedom:    2
    Shape of the molecule is: 'Linear'
    Net-charge:        0.00000000 [e]

    Move probabilities:
    Translation:                   0.000000 [-]
    Random translation:            0.000000 [-]
    Rotation:                      0.000000 [-]
    Random rotation:               0.000000 [-]
    Volume change:                 0.000000 [-]
    Reinsertion (CBMC):            0.000000 [-]
    Partial reinsertion (CBMC):    0.000000 [-]
    Identity change (CBMC):        0.000000 [-]
    Swap:                          0.000000 [-]
    Swap (CBMC):                   0.000000 [-]
    Swap (CFCMC):                  0.000000 [-]
    Swap (CB/CFCMC):               0.000000 [-]
    Gibbs volume:                  0.000000 [-]
    Gibbs swap (CBMC):             0.000000 [-]
    Gibbs swap (CFCMC):            0.000000 [-]
    Widom:                         1.000000 [-]
    Widom (CFCMC):                 0.000000 [-]
    Widom (CB/CFCMC):              0.000000 [-]
    Parallel tempering:            0.000000 [-]
    Hybrid MC:                     0.000000 [-]

    number of blocking-pockets: 0

    molecule is modelled as 'rigid'





Number of pseudo-atoms
===============================================================================

Component   0 (CO2)
-------------------------------------------------------------------------------
    index   0 (O): 0 atoms
    index   1 (Si): 0 atoms
    index   2 (C_co2): 0 atoms
    index   3 (O_co2): 0 atoms

Total number of pseudo-atoms:
-------------------------------------------------------------------------------
    index   0 (O): 0 atoms
    index   1 (Si): 0 atoms
    index   2 (C_co2): 0 atoms
    index   3 (O_co2): 0 atoms




Energy status Recomputed from scratch
===============================================================================

Total potential energy/kʙ        0.000000e+00 [K]
    external field VDW/kʙ        0.000000e+00 [K]
    external field Real/kʙ       0.000000e+00 [K]
    framework-molecule VDW/kʙ    0.000000e+00 [K]
    framework-molecule Real/kʙ   0.000000e+00 [K]
    molecule-molecule VDW/kʙ     0.000000e+00 [K]
    molecule-molecule Real/kʙ    0.000000e+00 [K]
    Van der Waals (Tail)/kʙ      0.000000e+00 [K]
    Ewald Fourier/kʙ             0.000000e+00 [K]
    Ewald self/kʙ                0.000000e+00 [K]
    Ewald exclusion/kʙ           0.000000e+00 [K]
    bond/kʙ                      0.000000e+00 [K]
    Urey-Bradley/kʙ              0.000000e+00 [K]
    bend/kʙ                      0.000000e+00 [K]
    inversion bend/kʙ            0.000000e+00 [K]
    out-of-plane bend/kʙ         0.000000e+00 [K]
    torsion/kʙ                   0.000000e+00 [K]
    improper torsion/kʙ          0.000000e+00 [K]
    bond-bond/kʙ                 0.000000e+00 [K]
    bond-bend/kʙ                 0.000000e+00 [K]
    bond-torsion/kʙ              0.000000e+00 [K]
    bend-bend/kʙ                 0.000000e+00 [K]
    bend-torsion/kʙ              0.000000e+00 [K]
    intra VDW/kʙ                 0.000000e+00 [K]
    intra Coulombic/kʙ           0.000000e+00 [K]
    polarization/kʙ              0.000000e+00 [K]
    dU/dlambda VDW/kʙ            0.000000e+00 [K]
    dU/dlambda Real/kʙ           0.000000e+00 [K]
    dU/dlambda Ewald/kʙ          0.000000e+00 [K]





Current cycle: 0 out of 20000
===============================================================================

Box:      27.35000 -13.67500   0.00000  Average:  27.35000 -13.67500   0.00000
           0.00000  23.68579   0.00000             0.00000  23.68579   0.00000
           0.00000   0.00000  29.53400             0.00000   0.00000  29.53400
Lengths:  27.35000  27.35000  29.53400  Average:  27.35000  27.35000  29.53400
Angles:   90.00000  90.00000 120.00000  Average:  90.00000  90.00000 120.00000
Triclinic boundary conditions

Net charge:  -0.00000000

component 0 (CO2) lambda:  0 occupancy:  1 (1.000000)
    net charge:   0.00000000 [e]

Amount of molecules per component:
-------------------------------------------------------------------------------
Component 0 (CO2)
    absolute adsorption: 0.000000e+00 molecules (0.000000e+00 +/- 0.000000e+00)
                         0.000000e+00 molec./uc (0.000000e+00 +/- 0.000000e+00)
                         0.000000e+00 mol/kg    (0.000000e+00 +/- 0.000000e+00)
                         0.000000e+00 mg/g      (0.000000e+00 +/- 0.000000e+00)
    excess adsorption:   0.000000e+00 molecules (0.000000e+00 +/- 0.000000e+00)
                         0.000000e+00 molec./uc (0.000000e+00 +/- 0.000000e+00)
                         0.000000e+00 mol/kg    (0.000000e+00 +/- 0.000000e+00)
                         0.000000e+00 mg/g      (0.000000e+00 +/- 0.000000e+00)

Total potential energy/kʙ   0.000000e+00 ( 0.000000e+00 +/- 0.000000e+00) [K]
-------------------------------------------------------------------------------
ExternalField-molecule
    Van der Waals/kʙ        0.000000e+00 ( 0.000000e+00 +/- 0.000000e+00) [K]
Framework-molecule
    Van der Waals/kʙ        0.000000e+00 ( 0.000000e+00 +/- 0.000000e+00) [K]
    Van der Waals (Tail)/kʙ 0.000000e+00 ( 0.000000e+00 +/- 0.000000e+00) [K]
    Coulombic Real/kʙ       0.000000e+00 ( 0.000000e+00 +/- 0.000000e+00) [K]
    Coulombic Fourier/kʙ    0.000000e+00 ( 0.000000e+00 +/- 0.000000e+00) [K]
Molecule-molecule
    Van der Waals/kʙ        0.000000e+00 ( 0.000000e+00 +/- 0.000000e+00) [K]
    Van der Waals (Tail)/kʙ 0.000000e+00 ( 0.000000e+00 +/- 0.000000e+00) [K]
    Coulombic Real/kʙ       0.000000e+00 ( 0.000000e+00 +/- 0.000000e+00) [K]
    Coulombic Fourier/kʙ    0.000000e+00 ( 0.000000e+00 +/- 0.000000e+00) [K]
    Molecule Intra/kʙ       0.000000e+00 ( 0.000000e+00 +/- 0.000000e+00) [K]
Polarization energy/kʙ      0.000000e+00 ( 0.000000e+00 +/- 0.000000e+00) [K]

Current cycle: 500 out of 20000
===============================================================================

Box:      27.35000 -13.67500   0.00000  Average:  27.35000 -13.67500   0.00000
           0.00000  23.68579   0.00000             0.00000  23.68579   0.00000
           0.00000   0.00000  29.53400             0.00000   0.00000  29.53400
Lengths:  27.35000  27.35000  29.53400  Average:  27.35000  27.35000  29.53400
Angles:   90.00000  90.00000 120.00000  Average:  90.00000  90.00000 120.00000
Triclinic boundary conditions

Net charge:  -0.00000000

component 0 (CO2) lambda:  0 occupancy:  1 (1.000000)
    net charge:   0.00000000 [e]

Amount of molecules per component:
-------------------------------------------------------------------------------
Component 0 (CO2)
    absolute adsorption: 0.000000e+00 molecules (0.000000e+00 +/- 0.000000e+00)
                         0.000000e+00 molec./uc (0.000000e+00 +/- 0.000000e+00)
                         0.000000e+00 mol/kg    (0.000000e+00 +/- 0.000000e+00)
                         0.000000e+00 mg/g      (0.000000e+00 +/- 0.000000e+00)
    excess adsorption:   0.000000e+00 molecules (0.000000e+00 +/- 0.000000e+00)
                         0.000000e+00 molec./uc (0.000000e+00 +/- 0.000000e+00)
                         0.000000e+00 mol/kg    (0.000000e+00 +/- 0.000000e+00)
                         0.000000e+00 mg/g      (0.000000e+00 +/- 0.000000e+00)

Total potential energy/kʙ   0.000000e+00 ( 0.000000e+00 +/- 0.000000e+00) [K]
-------------------------------------------------------------------------------
ExternalField-molecule
    Van der Waals/kʙ        0.000000e+00 ( 0.000000e+00 +/- 0.000000e+00) [K]
Framework-molecule
    Van der Waals/kʙ        0.000000e+00 ( 0.000000e+00 +/- 0.000000e+00) [K]
    Van der Waals (Tail)/kʙ 0.000000e+00 ( 0.000000e+00 +/- 0.000000e+00) [K]
    Coulombic Real/kʙ       0.000000e+00 ( 0.000000e+00 +/- 0.000000e+00) [K]
    Coulombic Fourier/kʙ    0.000000e+00 ( 0.000000e+00 +/- 0.000000e+00) [K]
Molecule-molecule
    Van der Waals/kʙ        0.000000e+00 ( 0.000000e+00 +/- 0.000000e+00) [K]
    Van der Waals (Tail)/kʙ 0.000000e+00 ( 0.000000e+00 +/- 0.000000e+00) [K]
    Coulombic Real/kʙ       0.000000e+00 ( 0.000000e+00 +/- 0.000000e+00) [K]
    Coulombic Fourier/kʙ    0.000000e+00 ( 0.000000e+00 +/- 0.000000e+00) [K]
    Molecule Intra/kʙ       0.000000e+00 ( 0.000000e+00 +/- 0.000000e+00) [K]
Polarization energy/kʙ      0.000000e+00 ( 0.000000e+00 +/- 0.000000e+00) [K]

Current cycle: 1000 out of 20000
===============================================================================

Box:      27.35000 -13.67500   0.00000  Average:  27.35000 -13.67500   0.00000
           0.00000  23.68579   0.00000             0.00000  23.68579   0.00000
           0.00000   0.00000  29.53400             0.00000   0.00000  29.53400
Lengths:  27.35000  27.35000  29.53400  Average:  27.35000  27.35000  29.53400
Angles:   90.00000  90.00000 120.00000  Average:  90.00000  90.00000 120.00000
Triclinic boundary conditions

Net charge:  -0.00000000

component 0 (CO2) lambda:  0 occupancy:  1 (1.000000)
    net charge:   0.00000000 [e]

Amount of molecules per component:
-------------------------------------------------------------------------------
Component 0 (CO2)
    absolute adsorption: 0.000000e+00 molecules (0.000000e+00 +/- 0.000000e+00)
                         0.000000e+00 molec./uc (0.000000e+00 +/- 0.000000e+00)
                         0.000000e+00 mol/kg    (0.000000e+00 +/- 0.000000e+00)
                         0.000000e+00 mg/g      (0.000000e+00 +/- 0.000000e+00)
    excess adsorption:   0.000000e+00 molecules (0.000000e+00 +/- 0.000000e+00)
                         0.000000e+00 molec./uc (0.000000e+00 +/- 0.000000e+00)
                         0.000000e+00 mol/kg    (0.000000e+00 +/- 0.000000e+00)
                         0.000000e+00 mg/g      (0.000000e+00 +/- 0.000000e+00)

Total potential energy/kʙ   0.000000e+00 ( 0.000000e+00 +/- 0.000000e+00) [K]
-------------------------------------------------------------------------------
ExternalField-molecule
    Van der Waals/kʙ        0.000000e+00 ( 0.000000e+00 +/- 0.000000e+00) [K]
Framework-molecule
    Van der Waals/kʙ        0.000000e+00 ( 0.000000e+00 +/- 0.000000e+00) [K]
    Van der Waals (Tail)/kʙ 0.000000e+00 ( 0.000000e+00 +/- 0.000000e+00) [K]
    Coulombic Real/kʙ       0.000000e+00 ( 0.000000e+00 +/- 0.000000e+00) [K]
    Coulombic Fourier/kʙ    0.000000e+00 ( 0.000000e+00 +/- 0.000000e+00) [K]
Molecule-molecule
    Van der Waals/kʙ        0.000000e+00 ( 0.000000e+00 +/- 0.000000e+00) [K]
    Van der Waals (Tail)/kʙ 0.000000e+00 ( 0.000000e+00 +/- 0.000000e+00) [K]
    Coulombic Real/kʙ       0.000000e+00 ( 0.000000e+00 +/- 0.000000e+00) [K]
    Coulombic Fourier/kʙ    0.000000e+00 ( 0.000000e+00 +/- 0.000000e+00) [K]
    Molecule Intra/kʙ       0.000000e+00 ( 0.000000e+00 +/- 0.000000e+00) [K]
Polarization energy/kʙ      0.000000e+00 ( 0.000000e+00 +/- 0.000000e+00) [K]

Current cycle: 1500 out of 20000
===============================================================================

Box:      27.35000 -13.67500   0.00000  Average:  27.35000 -13.67500   0.00000
           0.00000  23.68579   0.00000             0.00000  23.68579   0.00000
           0.00000   0.00000  29.53400             0.00000   0.00000  29.53400
Lengths:  27.35000  27.35000  29.53400  Average:  27.35000  27.35000  29.53400
Angles:   90.00000  90.00000 120.00000  Average:  90.00000  90.00000 120.00000
Triclinic boundary conditions

Net charge:  -0.00000000

component 0 (CO2) lambda:  0 occupancy:  1 (1.000000)
    net charge:   0.00000000 [e]

Amount of molecules per component:
-------------------------------------------------------------------------------
Component 0 (CO2)
    absolute adsorption: 0.000000e+00 molecules (0.000000e+00 +/- 0.000000e+00)
                         0.000000e+00 molec./uc (0.000000e+00 +/- 0.000000e+00)
                         0.000000e+00 mol/kg    (0.000000e+00 +/- 0.000000e+00)
                         0.000000e+00 mg/g      (0.000000e+00 +/- 0.000000e+00)
    excess adsorption:   0.000000e+00 molecules (0.000000e+00 +/- 0.000000e+00)
                         0.000000e+00 molec./uc (0.000000e+00 +/- 0.000000e+00)
                         0.000000e+00 mol/kg    (0.000000e+00 +/- 0.000000e+00)
                         0.000000e+00 mg/g      (0.000000e+00 +/- 0.000000e+00)

Total potential energy/kʙ   0.000000e+00 ( 0.000000e+00 +/- 0.000000e+00) [K]
-------------------------------------------------------------------------------
ExternalField-molecule
    Van der Waals/kʙ        0.000000e+00 ( 0.000000e+00 +/- 0.000000e+00) [K]
Framework-molecule
    Van der Waals/kʙ        0.000000e+00 ( 0.000000e+00 +/- 0.000000e+00) [K]
    Van der Waals (Tail)/kʙ 0.000000e+00 ( 0.000000e+00 +/- 0.000000e+00) [K]
    Coulombic Real/kʙ       0.000000e+00 ( 0.000000e+00 +/- 0.000000e+00) [K]
    Coulombic Fourier/kʙ    0.000000e+00 ( 0.000000e+00 +/- 0.000000e+00) [K]
Molecule-molecule
    Van der Waals/kʙ        0.000000e+00 ( 0.000000e+00 +/- 0.000000e+00) [K]
    Van der Waals (Tail)/kʙ 0.000000e+00 ( 0.000000e+00 +/- 0.000000e+00) [K]
    Coulombic Real/kʙ       0.000000e+00 ( 0.000000e+00 +/- 0.000000e+00) [K]
    Coulombic Fourier/kʙ    0.000000e+00 ( 0.000000e+00 +/- 0.000000e+00) [K]
    Molecule Intra/kʙ       0.000000e+00 ( 0.000000e+00 +/- 0.000000e+00) [K]
Polarization energy/kʙ      0.000000e+00 ( 0.000000e+00 +/- 0.000000e+00) [K]

Current cycle: 2000 out of 20000
===============================================================================

Box:      27.35000 -13.67500   0.00000  Average:  27.35000 -13.67500   0.00000
           0.00000  23.68579   0.00000             0.00000  23.68579   0.00000
           0.00000   0.00000  29.53400             0.00000   0.00000  29.53400
Lengths:  27.35000  27.35000  29.53400  Average:  27.35000  27.35000  29.53400
Angles:   90.00000  90.00000 120.00000  Average:  90.00000  90.00000 120.00000
Triclinic boundary conditions

Net charge:  -0.00000000

component 0 (CO2) lambda:  0 occupancy:  1 (1.000000)
    net charge:   0.00000000 [e]

Amount of molecules per component:
-------------------------------------------------------------------------------
Component 0 (CO2)
    absolute adsorption: 0.000000e+00 molecules (0.000000e+00 +/- 0.000000e+00)
                         0.000000e+00 molec./uc (0.000000e+00 +/- 0.000000e+00)
                         0.000000e+00 mol/kg    (0.000000e+00 +/- 0.000000e+00)
                         0.000000e+00 mg/g      (0.000000e+00 +/- 0.000000e+00)
    excess adsorption:   0.000000e+00 molecules (0.000000e+00 +/- 0.000000e+00)
                         0.000000e+00 molec./uc (0.000000e+00 +/- 0.000000e+00)
                         0.000000e+00 mol/kg    (0.000000e+00 +/- 0.000000e+00)
                         0.000000e+00 mg/g      (0.000000e+00 +/- 0.000000e+00)

Total potential energy/kʙ   0.000000e+00 ( 0.000000e+00 +/- 0.000000e+00) [K]
-------------------------------------------------------------------------------
ExternalField-molecule
    Van der Waals/kʙ        0.000000e+00 ( 0.000000e+00 +/- 0.000000e+00) [K]
Framework-molecule
    Van der Waals/kʙ        0.000000e+00 ( 0.000000e+00 +/- 0.000000e+00) [K]
    Van der Waals (Tail)/kʙ 0.000000e+00 ( 0.000000e+00 +/- 0.000000e+00) [K]
    Coulombic Real/kʙ       0.000000e+00 ( 0.000000e+00 +/- 0.000000e+00) [K]
    Coulombic Fourier/kʙ    0.000000e+00 ( 0.000000e+00 +/- 0.000000e+00) [K]
Molecule-molecule
    Van der Waals/kʙ        0.000000e+00 ( 0.000000e+00 +/- 0.000000e+00) [K]
    Van der Waals (Tail)/kʙ 0.000000e+00 ( 0.000000e+00 +/- 0.000000e+00) [K]
    Coulombic Real/kʙ       0.000000e+00 ( 0.000000e+00 +/- 0.000000e+00) [K]
    Coulombic Fourier/kʙ    0.000000e+00 ( 0.000000e+00 +/- 0.000000e+00) [K]
    Molecule Intra/kʙ       0.000000e+00 ( 0.000000e+00 +/- 0.000000e+00) [K]
Polarization energy/kʙ      0.000000e+00 ( 0.000000e+00 +/- 0.000000e+00) [K]

Current cycle: 2500 out of 20000
===============================================================================

Box:      27.35000 -13.67500   0.00000  Average:  27.35000 -13.67500   0.00000
           0.00000  23.68579   0.00000             0.00000  23.68579   0.00000
           0.00000   0.00000  29.53400             0.00000   0.00000  29.53400
Lengths:  27.35000  27.35000  29.53400  Average:  27.35000  27.35000  29.53400
Angles:   90.00000  90.00000 120.00000  Average:  90.00000  90.00000 120.00000
Triclinic boundary conditions

Net charge:  -0.00000000

component 0 (CO2) lambda:  0 occupancy:  1 (1.000000)
    net charge:   0.00000000 [e]

Amount of molecules per component:
-------------------------------------------------------------------------------
Component 0 (CO2)
    absolute adsorption: 0.000000e+00 molecules (0.000000e+00 +/- 0.000000e+00)
                         0.000000e+00 molec./uc (0.000000e+00 +/- 0.000000e+00)
                         0.000000e+00 mol/kg    (0.000000e+00 +/- 0.000000e+00)
                         0.000000e+00 mg/g      (0.000000e+00 +/- 0.000000e+00)
    excess adsorption:   0.000000e+00 molecules (0.000000e+00 +/- 0.000000e+00)
                         0.000000e+00 molec./uc (0.000000e+00 +/- 0.000000e+00)
                         0.000000e+00 mol/kg    (0.000000e+00 +/- 0.000000e+00)
                         0.000000e+00 mg/g      (0.000000e+00 +/- 0.000000e+00)

Total potential energy/kʙ   0.000000e+00 ( 0.000000e+00 +/- 0.000000e+00) [K]
-------------------------------------------------------------------------------
ExternalField-molecule
    Van der Waals/kʙ        0.000000e+00 ( 0.000000e+00 +/- 0.000000e+00) [K]
Framework-molecule
    Van der Waals/kʙ        0.000000e+00 ( 0.000000e+00 +/- 0.000000e+00) [K]
    Van der Waals (Tail)/kʙ 0.000000e+00 ( 0.000000e+00 +/- 0.000000e+00) [K]
    Coulombic Real/kʙ       0.000000e+00 ( 0.000000e+00 +/- 0.000000e+00) [K]
    Coulombic Fourier/kʙ    0.000000e+00 ( 0.000000e+00 +/- 0.000000e+00) [K]
Molecule-molecule
    Van der Waals/kʙ        0.000000e+00 ( 0.000000e+00 +/- 0.000000e+00) [K]
    Van der Waals (Tail)/kʙ 0.000000e+00 ( 0.000000e+00 +/- 0.000000e+00) [K]
    Coulombic Real/kʙ       0.000000e+00 ( 0.000000e+00 +/- 0.000000e+00) [K]
    Coulombic Fourier/kʙ    0.000000e+00 ( 0.000000e+00 +/- 0.000000e+00) [K]
    Molecule Intra/kʙ       0.000000e+00 ( 0.000000e+00 +/- 0.000000e+00) [K]
Polarization energy/kʙ      0.000000e+00 ( 0.000000e+00 +/- 0.000000e+00) [K]

Current cycle: 3000 out of 20000
===============================================================================

Box:      27.35000 -13.67500   0.00000  Average:  27.35000 -13.67500   0.00000
           0.00000  23.68579   0.00000             0.00000  23.68579   0.00000
           0.00000   0.00000  29.53400             0.00000   0.00000  29.53400
Lengths:  27.35000  27.35000  29.53400  Average:  27.35000  27.35000  29.53400
Angles:   90.00000  90.00000 120.00000  Average:  90.00000  90.00000 120.00000
Triclinic boundary conditions

Net charge:  -0.00000000

component 0 (CO2) lambda:  0 occupancy:  1 (1.000000)
    net charge:   0.00000000 [e]

Amount of molecules per component:
-------------------------------------------------------------------------------
Component 0 (CO2)
    absolute adsorption: 0.000000e+00 molecules (0.000000e+00 +/- 0.000000e+00)
                         0.000000e+00 molec./uc (0.000000e+00 +/- 0.000000e+00)
                         0.000000e+00 mol/kg    (0.000000e+00 +/- 0.000000e+00)
                         0.000000e+00 mg/g      (0.000000e+00 +/- 0.000000e+00)
    excess adsorption:   0.000000e+00 molecules (0.000000e+00 +/- 0.000000e+00)
                         0.000000e+00 molec./uc (0.000000e+00 +/- 0.000000e+00)
                         0.000000e+00 mol/kg    (0.000000e+00 +/- 0.000000e+00)
                         0.000000e+00 mg/g      (0.000000e+00 +/- 0.000000e+00)

Total potential energy/kʙ   0.000000e+00 ( 0.000000e+00 +/- 0.000000e+00) [K]
-------------------------------------------------------------------------------
ExternalField-molecule
    Van der Waals/kʙ        0.000000e+00 ( 0.000000e+00 +/- 0.000000e+00) [K]
Framework-molecule
    Van der Waals/kʙ        0.000000e+00 ( 0.000000e+00 +/- 0.000000e+00) [K]
    Van der Waals (Tail)/kʙ 0.000000e+00 ( 0.000000e+00 +/- 0.000000e+00) [K]
    Coulombic Real/kʙ       0.000000e+00 ( 0.000000e+00 +/- 0.000000e+00) [K]
    Coulombic Fourier/kʙ    0.000000e+00 ( 0.000000e+00 +/- 0.000000e+00) [K]
Molecule-molecule
    Van der Waals/kʙ        0.000000e+00 ( 0.000000e+00 +/- 0.000000e+00) [K]
    Van der Waals (Tail)/kʙ 0.000000e+00 ( 0.000000e+00 +/- 0.000000e+00) [K]
    Coulombic Real/kʙ       0.000000e+00 ( 0.000000e+00 +/- 0.000000e+00) [K]
    Coulombic Fourier/kʙ    0.000000e+00 ( 0.000000e+00 +/- 0.000000e+00) [K]
    Molecule Intra/kʙ       0.000000e+00 ( 0.000000e+00 +/- 0.000000e+00) [K]
Polarization energy/kʙ      0.000000e+00 ( 0.000000e+00 +/- 0.000000e+00) [K]

Current cycle: 3500 out of 20000
===============================================================================

Box:      27.35000 -13.67500   0.00000  Average:  27.35000 -13.67500   0.00000
           0.00000  23.68579   0.00000             0.00000  23.68579   0.00000
           0.00000   0.00000  29.53400             0.00000   0.00000  29.53400
Lengths:  27.35000  27.35000  29.53400  Average:  27.35000  27.35000  29.53400
Angles:   90.00000  90.00000 120.00000  Average:  90.00000  90.00000 120.00000
Triclinic boundary conditions

Net charge:  -0.00000000

component 0 (CO2) lambda:  0 occupancy:  1 (1.000000)
    net charge:   0.00000000 [e]

Amount of molecules per component:
-------------------------------------------------------------------------------
Component 0 (CO2)
    absolute adsorption: 0.000000e+00 molecules (0.000000e+00 +/- 0.000000e+00)
                         0.000000e+00 molec./uc (0.000000e+00 +/- 0.000000e+00)
                         0.000000e+00 mol/kg    (0.000000e+00 +/- 0.000000e+00)
                         0.000000e+00 mg/g      (0.000000e+00 +/- 0.000000e+00)
    excess adsorption:   0.000000e+00 molecules (0.000000e+00 +/- 0.000000e+00)
                         0.000000e+00 molec./uc (0.000000e+00 +/- 0.000000e+00)
                         0.000000e+00 mol/kg    (0.000000e+00 +/- 0.000000e+00)
                         0.000000e+00 mg/g      (0.000000e+00 +/- 0.000000e+00)

Total potential energy/kʙ   0.000000e+00 ( 0.000000e+00 +/- 0.000000e+00) [K]
-------------------------------------------------------------------------------
ExternalField-molecule
    Van der Waals/kʙ        0.000000e+00 ( 0.000000e+00 +/- 0.000000e+00) [K]
Framework-molecule
    Van der Waals/kʙ        0.000000e+00 ( 0.000000e+00 +/- 0.000000e+00) [K]
    Van der Waals (Tail)/kʙ 0.000000e+00 ( 0.000000e+00 +/- 0.000000e+00) [K]
    Coulombic Real/kʙ       0.000000e+00 ( 0.000000e+00 +/- 0.000000e+00) [K]
    Coulombic Fourier/kʙ    0.000000e+00 ( 0.000000e+00 +/- 0.000000e+00) [K]
Molecule-molecule
    Van der Waals/kʙ        0.000000e+00 ( 0.000000e+00 +/- 0.000000e+00) [K]
    Van der Waals (Tail)/kʙ 0.000000e+00 ( 0.000000e+00 +/- 0.000000e+00) [K]
    Coulombic Real/kʙ       0.000000e+00 ( 0.000000e+00 +/- 0.000000e+00) [K]
    Coulombic Fourier/kʙ    0.000000e+00 ( 0.000000e+00 +/- 0.000000e+00) [K]
    Molecule Intra/kʙ       0.000000e+00 ( 0.000000e+00 +/- 0.000000e+00) [K]
Polarization energy/kʙ      0.000000e+00 ( 0.000000e+00 +/- 0.000000e+00) [K]

Current cycle: 4000 out of 20000
===============================================================================

Box:      27.35000 -13.67500   0.00000  Average:  27.35000 -13.67500   0.00000
           0.00000  23.68579   0.00000             0.00000  23.68579   0.00000
           0.00000   0.00000  29.53400             0.00000   0.00000  29.53400
Lengths:  27.35000  27.35000  29.53400  Average:  27.35000  27.35000  29.53400
Angles:   90.00000  90.00000 120.00000  Average:  90.00000  90.00000 120.00000
Triclinic boundary conditions

Net charge:  -0.00000000

component 0 (CO2) lambda:  0 occupancy:  1 (1.000000)
    net charge:   0.00000000 [e]

Amount of molecules per component:
-------------------------------------------------------------------------------
Component 0 (CO2)
    absolute adsorption: 0.000000e+00 molecules (0.000000e+00 +/- 0.000000e+00)
                         0.000000e+00 molec./uc (0.000000e+00 +/- 0.000000e+00)
                         0.000000e+00 mol/kg    (0.000000e+00 +/- 0.000000e+00)
                         0.000000e+00 mg/g      (0.000000e+00 +/- 0.000000e+00)
    excess adsorption:   0.000000e+00 molecules (0.000000e+00 +/- 0.000000e+00)
                         0.000000e+00 molec./uc (0.000000e+00 +/- 0.000000e+00)
                         0.000000e+00 mol/kg    (0.000000e+00 +/- 0.000000e+00)
                         0.000000e+00 mg/g      (0.000000e+00 +/- 0.000000e+00)

Total potential energy/kʙ   0.000000e+00 ( 0.000000e+00 +/- 0.000000e+00) [K]
-------------------------------------------------------------------------------
ExternalField-molecule
    Van der Waals/kʙ        0.000000e+00 ( 0.000000e+00 +/- 0.000000e+00) [K]
Framework-molecule
    Van der Waals/kʙ        0.000000e+00 ( 0.000000e+00 +/- 0.000000e+00) [K]
    Van der Waals (Tail)/kʙ 0.000000e+00 ( 0.000000e+00 +/- 0.000000e+00) [K]
    Coulombic Real/kʙ       0.000000e+00 ( 0.000000e+00 +/- 0.000000e+00) [K]
    Coulombic Fourier/kʙ    0.000000e+00 ( 0.000000e+00 +/- 0.000000e+00) [K]
Molecule-molecule
    Van der Waals/kʙ        0.000000e+00 ( 0.000000e+00 +/- 0.000000e+00) [K]
    Van der Waals (Tail)/kʙ 0.000000e+00 ( 0.000000e+00 +/- 0.000000e+00) [K]
    Coulombic Real/kʙ       0.000000e+00 ( 0.000000e+00 +/- 0.000000e+00) [K]
    Coulombic Fourier/kʙ    0.000000e+00 ( 0.000000e+00 +/- 0.000000e+00) [K]
    Molecule Intra/kʙ       0.000000e+00 ( 0.000000e+00 +/- 0.000000e+00) [K]
Polarization energy/kʙ      0.000000e+00 ( 0.000000e+00 +/- 0.000000e+00) [K]

Current cycle: 4500 out of 20000
===============================================================================

Box:      27.35000 -13.67500   0.00000  Average:  27.35000 -13.67500   0.00000
           0.00000  23.68579   0.00000             0.00000  23.68579   0.00000
           0.00000   0.00000  29.53400             0.00000   0.00000  29.53400
Lengths:  27.35000  27.35000  29.53400  Average:  27.35000  27.35000  29.53400
Angles:   90.00000  90.00000 120.00000  Average:  90.00000  90.00000 120.00000
Triclinic boundary conditions

Net charge:  -0.00000000

component 0 (CO2) lambda:  0 occupancy:  1 (1.000000)
    net charge:   0.00000000 [e]

Amount of molecules per component:
-------------------------------------------------------------------------------
Component 0 (CO2)
    absolute adsorption: 0.000000e+00 molecules (0.000000e+00 +/- 0.000000e+00)
                         0.000000e+00 molec./uc (0.000000e+00 +/- 0.000000e+00)
                         0.000000e+00 mol/kg    (0.000000e+00 +/- 0.000000e+00)
                         0.000000e+00 mg/g      (0.000000e+00 +/- 0.000000e+00)
    excess adsorption:   0.000000e+00 molecules (0.000000e+00 +/- 0.000000e+00)
                         0.000000e+00 molec./uc (0.000000e+00 +/- 0.000000e+00)
                         0.000000e+00 mol/kg    (0.000000e+00 +/- 0.000000e+00)
                         0.000000e+00 mg/g      (0.000000e+00 +/- 0.000000e+00)

Total potential energy/kʙ   0.000000e+00 ( 0.000000e+00 +/- 0.000000e+00) [K]
-------------------------------------------------------------------------------
ExternalField-molecule
    Van der Waals/kʙ        0.000000e+00 ( 0.000000e+00 +/- 0.000000e+00) [K]
Framework-molecule
    Van der Waals/kʙ        0.000000e+00 ( 0.000000e+00 +/- 0.000000e+00) [K]
    Van der Waals (Tail)/kʙ 0.000000e+00 ( 0.000000e+00 +/- 0.000000e+00) [K]
    Coulombic Real/kʙ       0.000000e+00 ( 0.000000e+00 +/- 0.000000e+00) [K]
    Coulombic Fourier/kʙ    0.000000e+00 ( 0.000000e+00 +/- 0.000000e+00) [K]
Molecule-molecule
    Van der Waals/kʙ        0.000000e+00 ( 0.000000e+00 +/- 0.000000e+00) [K]
    Van der Waals (Tail)/kʙ 0.000000e+00 ( 0.000000e+00 +/- 0.000000e+00) [K]
    Coulombic Real/kʙ       0.000000e+00 ( 0.000000e+00 +/- 0.000000e+00) [K]
    Coulombic Fourier/kʙ    0.000000e+00 ( 0.000000e+00 +/- 0.000000e+00) [K]
    Molecule Intra/kʙ       0.000000e+00 ( 0.000000e+00 +/- 0.000000e+00) [K]
Polarization energy/kʙ      0.000000e+00 ( 0.000000e+00 +/- 0.000000e+00) [K]

Current cycle: 5000 out of 20000
===============================================================================

Box:      27.35000 -13.67500   0.00000  Average:  27.35000 -13.67500   0.00000
           0.00000  23.68579   0.00000             0.00000  23.68579   0.00000
           0.00000   0.00000  29.53400             0.00000   0.00000  29.53400
Lengths:  27.35000  27.35000  29.53400  Average:  27.35000  27.35000  29.53400
Angles:   90.00000  90.00000 120.00000  Average:  90.00000  90.00000 120.00000
Triclinic boundary conditions

Net charge:  -0.00000000

component 0 (CO2) lambda:  0 occupancy:  1 (1.000000)
    net charge:   0.00000000 [e]

Amount of molecules per component:
-------------------------------------------------------------------------------
Component 0 (CO2)
    absolute adsorption: 0.000000e+00 molecules (0.000000e+00 +/- 0.000000e+00)
                         0.000000e+00 molec./uc (0.000000e+00 +/- 0.000000e+00)
                         0.000000e+00 mol/kg    (0.000000e+00 +/- 0.000000e+00)
                         0.000000e+00 mg/g      (0.000000e+00 +/- 0.000000e+00)
    excess adsorption:   0.000000e+00 molecules (0.000000e+00 +/- 0.000000e+00)
                         0.000000e+00 molec./uc (0.000000e+00 +/- 0.000000e+00)
                         0.000000e+00 mol/kg    (0.000000e+00 +/- 0.000000e+00)
                         0.000000e+00 mg/g      (0.000000e+00 +/- 0.000000e+00)

Total potential energy/kʙ   0.000000e+00 ( 0.000000e+00 +/- 0.000000e+00) [K]
-------------------------------------------------------------------------------
ExternalField-molecule
    Van der Waals/kʙ        0.000000e+00 ( 0.000000e+00 +/- 0.000000e+00) [K]
Framework-molecule
    Van der Waals/kʙ        0.000000e+00 ( 0.000000e+00 +/- 0.000000e+00) [K]
    Van der Waals (Tail)/kʙ 0.000000e+00 ( 0.000000e+00 +/- 0.000000e+00) [K]
    Coulombic Real/kʙ       0.000000e+00 ( 0.000000e+00 +/- 0.000000e+00) [K]
    Coulombic Fourier/kʙ    0.000000e+00 ( 0.000000e+00 +/- 0.000000e+00) [K]
Molecule-molecule
    Van der Waals/kʙ        0.000000e+00 ( 0.000000e+00 +/- 0.000000e+00) [K]
    Van der Waals (Tail)/kʙ 0.000000e+00 ( 0.000000e+00 +/- 0.000000e+00) [K]
    Coulombic Real/kʙ       0.000000e+00 ( 0.000000e+00 +/- 0.000000e+00) [K]
    Coulombic Fourier/kʙ    0.000000e+00 ( 0.000000e+00 +/- 0.000000e+00) [K]
    Molecule Intra/kʙ       0.000000e+00 ( 0.000000e+00 +/- 0.000000e+00) [K]
Polarization energy/kʙ      0.000000e+00 ( 0.000000e+00 +/- 0.000000e+00) [K]

Current cycle: 5500 out of 20000
===============================================================================

Box:      27.35000 -13.67500   0.00000  Average:  27.35000 -13.67500   0.00000
           0.00000  23.68579   0.00000             0.00000  23.68579   0.00000
           0.00000   0.00000  29.53400             0.00000   0.00000  29.53400
Lengths:  27.35000  27.35000  29.53400  Average:  27.35000  27.35000  29.53400
Angles:   90.00000  90.00000 120.00000  Average:  90.00000  90.00000 120.00000
Triclinic boundary conditions

Net charge:  -0.00000000

component 0 (CO2) lambda:  0 occupancy:  1 (1.000000)
    net charge:   0.00000000 [e]

Amount of molecules per component:
-------------------------------------------------------------------------------
Component 0 (CO2)
    absolute adsorption: 0.000000e+00 molecules (0.000000e+00 +/- 0.000000e+00)
                         0.000000e+00 molec./uc (0.000000e+00 +/- 0.000000e+00)
                         0.000000e+00 mol/kg    (0.000000e+00 +/- 0.000000e+00)
                         0.000000e+00 mg/g      (0.000000e+00 +/- 0.000000e+00)
    excess adsorption:   0.000000e+00 molecules (0.000000e+00 +/- 0.000000e+00)
                         0.000000e+00 molec./uc (0.000000e+00 +/- 0.000000e+00)
                         0.000000e+00 mol/kg    (0.000000e+00 +/- 0.000000e+00)
                         0.000000e+00 mg/g      (0.000000e+00 +/- 0.000000e+00)

Total potential energy/kʙ   0.000000e+00 ( 0.000000e+00 +/- 0.000000e+00) [K]
-------------------------------------------------------------------------------
ExternalField-molecule
    Van der Waals/kʙ        0.000000e+00 ( 0.000000e+00 +/- 0.000000e+00) [K]
Framework-molecule
    Van der Waals/kʙ        0.000000e+00 ( 0.000000e+00 +/- 0.000000e+00) [K]
    Van der Waals (Tail)/kʙ 0.000000e+00 ( 0.000000e+00 +/- 0.000000e+00) [K]
    Coulombic Real/kʙ       0.000000e+00 ( 0.000000e+00 +/- 0.000000e+00) [K]
    Coulombic Fourier/kʙ    0.000000e+00 ( 0.000000e+00 +/- 0.000000e+00) [K]
Molecule-molecule
    Van der Waals/kʙ        0.000000e+00 ( 0.000000e+00 +/- 0.000000e+00) [K]
    Van der Waals (Tail)/kʙ 0.000000e+00 ( 0.000000e+00 +/- 0.000000e+00) [K]
    Coulombic Real/kʙ       0.000000e+00 ( 0.000000e+00 +/- 0.000000e+00) [K]
    Coulombic Fourier/kʙ    0.000000e+00 ( 0.000000e+00 +/- 0.000000e+00) [K]
    Molecule Intra/kʙ       0.000000e+00 ( 0.000000e+00 +/- 0.000000e+00) [K]
Polarization energy/kʙ      0.000000e+00 ( 0.000000e+00 +/- 0.000000e+00) [K]

Current cycle: 6000 out of 20000
===============================================================================

Box:      27.35000 -13.67500   0.00000  Average:  27.35000 -13.67500   0.00000
           0.00000  23.68579   0.00000             0.00000  23.68579   0.00000
           0.00000   0.00000  29.53400             0.00000   0.00000  29.53400
Lengths:  27.35000  27.35000  29.53400  Average:  27.35000  27.35000  29.53400
Angles:   90.00000  90.00000 120.00000  Average:  90.00000  90.00000 120.00000
Triclinic boundary conditions

Net charge:  -0.00000000

component 0 (CO2) lambda:  0 occupancy:  1 (1.000000)
    net charge:   0.00000000 [e]

Amount of molecules per component:
-------------------------------------------------------------------------------
Component 0 (CO2)
    absolute adsorption: 0.000000e+00 molecules (0.000000e+00 +/- 0.000000e+00)
                         0.000000e+00 molec./uc (0.000000e+00 +/- 0.000000e+00)
                         0.000000e+00 mol/kg    (0.000000e+00 +/- 0.000000e+00)
                         0.000000e+00 mg/g      (0.000000e+00 +/- 0.000000e+00)
    excess adsorption:   0.000000e+00 molecules (0.000000e+00 +/- 0.000000e+00)
                         0.000000e+00 molec./uc (0.000000e+00 +/- 0.000000e+00)
                         0.000000e+00 mol/kg    (0.000000e+00 +/- 0.000000e+00)
                         0.000000e+00 mg/g      (0.000000e+00 +/- 0.000000e+00)

Total potential energy/kʙ   0.000000e+00 ( 0.000000e+00 +/- 0.000000e+00) [K]
-------------------------------------------------------------------------------
ExternalField-molecule
    Van der Waals/kʙ        0.000000e+00 ( 0.000000e+00 +/- 0.000000e+00) [K]
Framework-molecule
    Van der Waals/kʙ        0.000000e+00 ( 0.000000e+00 +/- 0.000000e+00) [K]
    Van der Waals (Tail)/kʙ 0.000000e+00 ( 0.000000e+00 +/- 0.000000e+00) [K]
    Coulombic Real/kʙ       0.000000e+00 ( 0.000000e+00 +/- 0.000000e+00) [K]
    Coulombic Fourier/kʙ    0.000000e+00 ( 0.000000e+00 +/- 0.000000e+00) [K]
Molecule-molecule
    Van der Waals/kʙ        0.000000e+00 ( 0.000000e+00 +/- 0.000000e+00) [K]
    Van der Waals (Tail)/kʙ 0.000000e+00 ( 0.000000e+00 +/- 0.000000e+00) [K]
    Coulombic Real/kʙ       0.000000e+00 ( 0.000000e+00 +/- 0.000000e+00) [K]
    Coulombic Fourier/kʙ    0.000000e+00 ( 0.000000e+00 +/- 0.000000e+00) [K]
    Molecule Intra/kʙ       0.000000e+00 ( 0.000000e+00 +/- 0.000000e+00) [K]
Polarization energy/kʙ      0.000000e+00 ( 0.000000e+00 +/- 0.000000e+00) [K]

Current cycle: 6500 out of 20000
===============================================================================

Box:      27.35000 -13.67500   0.00000  Average:  27.35000 -13.67500   0.00000
           0.00000  23.68579   0.00000             0.00000  23.68579   0.00000
           0.00000   0.00000  29.53400             0.00000   0.00000  29.53400
Lengths:  27.35000  27.35000  29.53400  Average:  27.35000  27.35000  29.53400
Angles:   90.00000  90.00000 120.00000  Average:  90.00000  90.00000 120.00000
Triclinic boundary conditions

Net charge:  -0.00000000

component 0 (CO2) lambda:  0 occupancy:  1 (1.000000)
    net charge:   0.00000000 [e]

Amount of molecules per component:
-------------------------------------------------------------------------------
Component 0 (CO2)
    absolute adsorption: 0.000000e+00 molecules (0.000000e+00 +/- 0.000000e+00)
                         0.000000e+00 molec./uc (0.000000e+00 +/- 0.000000e+00)
                         0.000000e+00 mol/kg    (0.000000e+00 +/- 0.000000e+00)
                         0.000000e+00 mg/g      (0.000000e+00 +/- 0.000000e+00)
    excess adsorption:   0.000000e+00 molecules (0.000000e+00 +/- 0.000000e+00)
                         0.000000e+00 molec./uc (0.000000e+00 +/- 0.000000e+00)
                         0.000000e+00 mol/kg    (0.000000e+00 +/- 0.000000e+00)
                         0.000000e+00 mg/g      (0.000000e+00 +/- 0.000000e+00)

Total potential energy/kʙ   0.000000e+00 ( 0.000000e+00 +/- 0.000000e+00) [K]
-------------------------------------------------------------------------------
ExternalField-molecule
    Van der Waals/kʙ        0.000000e+00 ( 0.000000e+00 +/- 0.000000e+00) [K]
Framework-molecule
    Van der Waals/kʙ        0.000000e+00 ( 0.000000e+00 +/- 0.000000e+00) [K]
    Van der Waals (Tail)/kʙ 0.000000e+00 ( 0.000000e+00 +/- 0.000000e+00) [K]
    Coulombic Real/kʙ       0.000000e+00 ( 0.000000e+00 +/- 0.000000e+00) [K]
    Coulombic Fourier/kʙ    0.000000e+00 ( 0.000000e+00 +/- 0.000000e+00) [K]
Molecule-molecule
    Van der Waals/kʙ        0.000000e+00 ( 0.000000e+00 +/- 0.000000e+00) [K]
    Van der Waals (Tail)/kʙ 0.000000e+00 ( 0.000000e+00 +/- 0.000000e+00) [K]
    Coulombic Real/kʙ       0.000000e+00 ( 0.000000e+00 +/- 0.000000e+00) [K]
    Coulombic Fourier/kʙ    0.000000e+00 ( 0.000000e+00 +/- 0.000000e+00) [K]
    Molecule Intra/kʙ       0.000000e+00 ( 0.000000e+00 +/- 0.000000e+00) [K]
Polarization energy/kʙ      0.000000e+00 ( 0.000000e+00 +/- 0.000000e+00) [K]

Current cycle: 7000 out of 20000
===============================================================================

Box:      27.35000 -13.67500   0.00000  Average:  27.35000 -13.67500   0.00000
           0.00000  23.68579   0.00000             0.00000  23.68579   0.00000
           0.00000   0.00000  29.53400             0.00000   0.00000  29.53400
Lengths:  27.35000  27.35000  29.53400  Average:  27.35000  27.35000  29.53400
Angles:   90.00000  90.00000 120.00000  Average:  90.00000  90.00000 120.00000
Triclinic boundary conditions

Net charge:  -0.00000000

component 0 (CO2) lambda:  0 occupancy:  1 (1.000000)
    net charge:   0.00000000 [e]

Amount of molecules per component:
-------------------------------------------------------------------------------
Component 0 (CO2)
    absolute adsorption: 0.000000e+00 molecules (0.000000e+00 +/- 0.000000e+00)
                         0.000000e+00 molec./uc (0.000000e+00 +/- 0.000000e+00)
                         0.000000e+00 mol/kg    (0.000000e+00 +/- 0.000000e+00)
                         0.000000e+00 mg/g      (0.000000e+00 +/- 0.000000e+00)
    excess adsorption:   0.000000e+00 molecules (0.000000e+00 +/- 0.000000e+00)
                         0.000000e+00 molec./uc (0.000000e+00 +/- 0.000000e+00)
                         0.000000e+00 mol/kg    (0.000000e+00 +/- 0.000000e+00)
                         0.000000e+00 mg/g      (0.000000e+00 +/- 0.000000e+00)

Total potential energy/kʙ   0.000000e+00 ( 0.000000e+00 +/- 0.000000e+00) [K]
-------------------------------------------------------------------------------
ExternalField-molecule
    Van der Waals/kʙ        0.000000e+00 ( 0.000000e+00 +/- 0.000000e+00) [K]
Framework-molecule
    Van der Waals/kʙ        0.000000e+00 ( 0.000000e+00 +/- 0.000000e+00) [K]
    Van der Waals (Tail)/kʙ 0.000000e+00 ( 0.000000e+00 +/- 0.000000e+00) [K]
    Coulombic Real/kʙ       0.000000e+00 ( 0.000000e+00 +/- 0.000000e+00) [K]
    Coulombic Fourier/kʙ    0.000000e+00 ( 0.000000e+00 +/- 0.000000e+00) [K]
Molecule-molecule
    Van der Waals/kʙ        0.000000e+00 ( 0.000000e+00 +/- 0.000000e+00) [K]
    Van der Waals (Tail)/kʙ 0.000000e+00 ( 0.000000e+00 +/- 0.000000e+00) [K]
    Coulombic Real/kʙ       0.000000e+00 ( 0.000000e+00 +/- 0.000000e+00) [K]
    Coulombic Fourier/kʙ    0.000000e+00 ( 0.000000e+00 +/- 0.000000e+00) [K]
    Molecule Intra/kʙ       0.000000e+00 ( 0.000000e+00 +/- 0.000000e+00) [K]
Polarization energy/kʙ      0.000000e+00 ( 0.000000e+00 +/- 0.000000e+00) [K]

Current cycle: 7500 out of 20000
===============================================================================

Box:      27.35000 -13.67500   0.00000  Average:  27.35000 -13.67500   0.00000
           0.00000  23.68579   0.00000             0.00000  23.68579   0.00000
           0.00000   0.00000  29.53400             0.00000   0.00000  29.53400
Lengths:  27.35000  27.35000  29.53400  Average:  27.35000  27.35000  29.53400
Angles:   90.00000  90.00000 120.00000  Average:  90.00000  90.00000 120.00000
Triclinic boundary conditions

Net charge:  -0.00000000

component 0 (CO2) lambda:  0 occupancy:  1 (1.000000)
    net charge:   0.00000000 [e]

Amount of molecules per component:
-------------------------------------------------------------------------------
Component 0 (CO2)
    absolute adsorption: 0.000000e+00 molecules (0.000000e+00 +/- 0.000000e+00)
                         0.000000e+00 molec./uc (0.000000e+00 +/- 0.000000e+00)
                         0.000000e+00 mol/kg    (0.000000e+00 +/- 0.000000e+00)
                         0.000000e+00 mg/g      (0.000000e+00 +/- 0.000000e+00)
    excess adsorption:   0.000000e+00 molecules (0.000000e+00 +/- 0.000000e+00)
                         0.000000e+00 molec./uc (0.000000e+00 +/- 0.000000e+00)
                         0.000000e+00 mol/kg    (0.000000e+00 +/- 0.000000e+00)
                         0.000000e+00 mg/g      (0.000000e+00 +/- 0.000000e+00)

Total potential energy/kʙ   0.000000e+00 ( 0.000000e+00 +/- 0.000000e+00) [K]
-------------------------------------------------------------------------------
ExternalField-molecule
    Van der Waals/kʙ        0.000000e+00 ( 0.000000e+00 +/- 0.000000e+00) [K]
Framework-molecule
    Van der Waals/kʙ        0.000000e+00 ( 0.000000e+00 +/- 0.000000e+00) [K]
    Van der Waals (Tail)/kʙ 0.000000e+00 ( 0.000000e+00 +/- 0.000000e+00) [K]
    Coulombic Real/kʙ       0.000000e+00 ( 0.000000e+00 +/- 0.000000e+00) [K]
    Coulombic Fourier/kʙ    0.000000e+00 ( 0.000000e+00 +/- 0.000000e+00) [K]
Molecule-molecule
    Van der Waals/kʙ        0.000000e+00 ( 0.000000e+00 +/- 0.000000e+00) [K]
    Van der Waals (Tail)/kʙ 0.000000e+00 ( 0.000000e+00 +/- 0.000000e+00) [K]
    Coulombic Real/kʙ       0.000000e+00 ( 0.000000e+00 +/- 0.000000e+00) [K]
    Coulombic Fourier/kʙ    0.000000e+00 ( 0.000000e+00 +/- 0.000000e+00) [K]
    Molecule Intra/kʙ       0.000000e+00 ( 0.000000e+00 +/- 0.000000e+00) [K]
Polarization energy/kʙ      0.000000e+00 ( 0.000000e+00 +/- 0.000000e+00) [K]

Current cycle: 8000 out of 20000
===============================================================================

Box:      27.35000 -13.67500   0.00000  Average:  27.35000 -13.67500   0.00000
           0.00000  23.68579   0.00000             0.00000  23.68579   0.00000
           0.00000   0.00000  29.53400             0.00000   0.00000  29.53400
Lengths:  27.35000  27.35000  29.53400  Average:  27.35000  27.35000  29.53400
Angles:   90.00000  90.00000 120.00000  Average:  90.00000  90.00000 120.00000
Triclinic boundary conditions

Net charge:  -0.00000000

component 0 (CO2) lambda:  0 occupancy:  1 (1.000000)
    net charge:   0.00000000 [e]

Amount of molecules per component:
-------------------------------------------------------------------------------
Component 0 (CO2)
    absolute adsorption: 0.000000e+00 molecules (0.000000e+00 +/- 0.000000e+00)
                         0.000000e+00 molec./uc (0.000000e+00 +/- 0.000000e+00)
                         0.000000e+00 mol/kg    (0.000000e+00 +/- 0.000000e+00)
                         0.000000e+00 mg/g      (0.000000e+00 +/- 0.000000e+00)
    excess adsorption:   0.000000e+00 molecules (0.000000e+00 +/- 0.000000e+00)
                         0.000000e+00 molec./uc (0.000000e+00 +/- 0.000000e+00)
                         0.000000e+00 mol/kg    (0.000000e+00 +/- 0.000000e+00)
                         0.000000e+00 mg/g      (0.000000e+00 +/- 0.000000e+00)

Total potential energy/kʙ   0.000000e+00 ( 0.000000e+00 +/- 0.000000e+00) [K]
-------------------------------------------------------------------------------
ExternalField-molecule
    Van der Waals/kʙ        0.000000e+00 ( 0.000000e+00 +/- 0.000000e+00) [K]
Framework-molecule
    Van der Waals/kʙ        0.000000e+00 ( 0.000000e+00 +/- 0.000000e+00) [K]
    Van der Waals (Tail)/kʙ 0.000000e+00 ( 0.000000e+00 +/- 0.000000e+00) [K]
    Coulombic Real/kʙ       0.000000e+00 ( 0.000000e+00 +/- 0.000000e+00) [K]
    Coulombic Fourier/kʙ    0.000000e+00 ( 0.000000e+00 +/- 0.000000e+00) [K]
Molecule-molecule
    Van der Waals/kʙ        0.000000e+00 ( 0.000000e+00 +/- 0.000000e+00) [K]
    Van der Waals (Tail)/kʙ 0.000000e+00 ( 0.000000e+00 +/- 0.000000e+00) [K]
    Coulombic Real/kʙ       0.000000e+00 ( 0.000000e+00 +/- 0.000000e+00) [K]
    Coulombic Fourier/kʙ    0.000000e+00 ( 0.000000e+00 +/- 0.000000e+00) [K]
    Molecule Intra/kʙ       0.000000e+00 ( 0.000000e+00 +/- 0.000000e+00) [K]
Polarization energy/kʙ      0.000000e+00 ( 0.000000e+00 +/- 0.000000e+00) [K]

Current cycle: 8500 out of 20000
===============================================================================

Box:      27.35000 -13.67500   0.00000  Average:  27.35000 -13.67500   0.00000
           0.00000  23.68579   0.00000             0.00000  23.68579   0.00000
           0.00000   0.00000  29.53400             0.00000   0.00000  29.53400
Lengths:  27.35000  27.35000  29.53400  Average:  27.35000  27.35000  29.53400
Angles:   90.00000  90.00000 120.00000  Average:  90.00000  90.00000 120.00000
Triclinic boundary conditions

Net charge:  -0.00000000

component 0 (CO2) lambda:  0 occupancy:  1 (1.000000)
    net charge:   0.00000000 [e]

Amount of molecules per component:
-------------------------------------------------------------------------------
Component 0 (CO2)
    absolute adsorption: 0.000000e+00 molecules (0.000000e+00 +/- 0.000000e+00)
                         0.000000e+00 molec./uc (0.000000e+00 +/- 0.000000e+00)
                         0.000000e+00 mol/kg    (0.000000e+00 +/- 0.000000e+00)
                         0.000000e+00 mg/g      (0.000000e+00 +/- 0.000000e+00)
    excess adsorption:   0.000000e+00 molecules (0.000000e+00 +/- 0.000000e+00)
                         0.000000e+00 molec./uc (0.000000e+00 +/- 0.000000e+00)
                         0.000000e+00 mol/kg    (0.000000e+00 +/- 0.000000e+00)
                         0.000000e+00 mg/g      (0.000000e+00 +/- 0.000000e+00)

Total potential energy/kʙ   0.000000e+00 ( 0.000000e+00 +/- 0.000000e+00) [K]
-------------------------------------------------------------------------------
ExternalField-molecule
    Van der Waals/kʙ        0.000000e+00 ( 0.000000e+00 +/- 0.000000e+00) [K]
Framework-molecule
    Van der Waals/kʙ        0.000000e+00 ( 0.000000e+00 +/- 0.000000e+00) [K]
    Van der Waals (Tail)/kʙ 0.000000e+00 ( 0.000000e+00 +/- 0.000000e+00) [K]
    Coulombic Real/kʙ       0.000000e+00 ( 0.000000e+00 +/- 0.000000e+00) [K]
    Coulombic Fourier/kʙ    0.000000e+00 ( 0.000000e+00 +/- 0.000000e+00) [K]
Molecule-molecule
    Van der Waals/kʙ        0.000000e+00 ( 0.000000e+00 +/- 0.000000e+00) [K]
    Van der Waals (Tail)/kʙ 0.000000e+00 ( 0.000000e+00 +/- 0.000000e+00) [K]
    Coulombic Real/kʙ       0.000000e+00 ( 0.000000e+00 +/- 0.000000e+00) [K]
    Coulombic Fourier/kʙ    0.000000e+00 ( 0.000000e+00 +/- 0.000000e+00) [K]
    Molecule Intra/kʙ       0.000000e+00 ( 0.000000e+00 +/- 0.000000e+00) [K]
Polarization energy/kʙ      0.000000e+00 ( 0.000000e+00 +/- 0.000000e+00) [K]

Current cycle: 9000 out of 20000
===============================================================================

Box:      27.35000 -13.67500   0.00000  Average:  27.35000 -13.67500   0.00000
           0.00000  23.68579   0.00000             0.00000  23.68579   0.00000
           0.00000   0.00000  29.53400             0.00000   0.00000  29.53400
Lengths:  27.35000  27.35000  29.53400  Average:  27.35000  27.35000  29.53400
Angles:   90.00000  90.00000 120.00000  Average:  90.00000  90.00000 120.00000
Triclinic boundary conditions

Net charge:  -0.00000000

component 0 (CO2) lambda:  0 occupancy:  1 (1.000000)
    net charge:   0.00000000 [e]

Amount of molecules per component:
-------------------------------------------------------------------------------
Component 0 (CO2)
    absolute adsorption: 0.000000e+00 molecules (0.000000e+00 +/- 0.000000e+00)
                         0.000000e+00 molec./uc (0.000000e+00 +/- 0.000000e+00)
                         0.000000e+00 mol/kg    (0.000000e+00 +/- 0.000000e+00)
                         0.000000e+00 mg/g      (0.000000e+00 +/- 0.000000e+00)
    excess adsorption:   0.000000e+00 molecules (0.000000e+00 +/- 0.000000e+00)
                         0.000000e+00 molec./uc (0.000000e+00 +/- 0.000000e+00)
                         0.000000e+00 mol/kg    (0.000000e+00 +/- 0.000000e+00)
                         0.000000e+00 mg/g      (0.000000e+00 +/- 0.000000e+00)

Total potential energy/kʙ   0.000000e+00 ( 0.000000e+00 +/- 0.000000e+00) [K]
-------------------------------------------------------------------------------
ExternalField-molecule
    Van der Waals/kʙ        0.000000e+00 ( 0.000000e+00 +/- 0.000000e+00) [K]
Framework-molecule
    Van der Waals/kʙ        0.000000e+00 ( 0.000000e+00 +/- 0.000000e+00) [K]
    Van der Waals (Tail)/kʙ 0.000000e+00 ( 0.000000e+00 +/- 0.000000e+00) [K]
    Coulombic Real/kʙ       0.000000e+00 ( 0.000000e+00 +/- 0.000000e+00) [K]
    Coulombic Fourier/kʙ    0.000000e+00 ( 0.000000e+00 +/- 0.000000e+00) [K]
Molecule-molecule
    Van der Waals/kʙ        0.000000e+00 ( 0.000000e+00 +/- 0.000000e+00) [K]
    Van der Waals (Tail)/kʙ 0.000000e+00 ( 0.000000e+00 +/- 0.000000e+00) [K]
    Coulombic Real/kʙ       0.000000e+00 ( 0.000000e+00 +/- 0.000000e+00) [K]
    Coulombic Fourier/kʙ    0.000000e+00 ( 0.000000e+00 +/- 0.000000e+00) [K]
    Molecule Intra/kʙ       0.000000e+00 ( 0.000000e+00 +/- 0.000000e+00) [K]
Polarization energy/kʙ      0.000000e+00 ( 0.000000e+00 +/- 0.000000e+00) [K]

Current cycle: 9500 out of 20000
===============================================================================

Box:      27.35000 -13.67500   0.00000  Average:  27.35000 -13.67500   0.00000
           0.00000  23.68579   0.00000             0.00000  23.68579   0.00000
           0.00000   0.00000  29.53400             0.00000   0.00000  29.53400
Lengths:  27.35000  27.35000  29.53400  Average:  27.35000  27.35000  29.53400
Angles:   90.00000  90.00000 120.00000  Average:  90.00000  90.00000 120.00000
Triclinic boundary conditions

Net charge:  -0.00000000

component 0 (CO2) lambda:  0 occupancy:  1 (1.000000)
    net charge:   0.00000000 [e]

Amount of molecules per component:
-------------------------------------------------------------------------------
Component 0 (CO2)
    absolute adsorption: 0.000000e+00 molecules (0.000000e+00 +/- 0.000000e+00)
                         0.000000e+00 molec./uc (0.000000e+00 +/- 0.000000e+00)
                         0.000000e+00 mol/kg    (0.000000e+00 +/- 0.000000e+00)
                         0.000000e+00 mg/g      (0.000000e+00 +/- 0.000000e+00)
    excess adsorption:   0.000000e+00 molecules (0.000000e+00 +/- 0.000000e+00)
                         0.000000e+00 molec./uc (0.000000e+00 +/- 0.000000e+00)
                         0.000000e+00 mol/kg    (0.000000e+00 +/- 0.000000e+00)
                         0.000000e+00 mg/g      (0.000000e+00 +/- 0.000000e+00)

Total potential energy/kʙ   0.000000e+00 ( 0.000000e+00 +/- 0.000000e+00) [K]
-------------------------------------------------------------------------------
ExternalField-molecule
    Van der Waals/kʙ        0.000000e+00 ( 0.000000e+00 +/- 0.000000e+00) [K]
Framework-molecule
    Van der Waals/kʙ        0.000000e+00 ( 0.000000e+00 +/- 0.000000e+00) [K]
    Van der Waals (Tail)/kʙ 0.000000e+00 ( 0.000000e+00 +/- 0.000000e+00) [K]
    Coulombic Real/kʙ       0.000000e+00 ( 0.000000e+00 +/- 0.000000e+00) [K]
    Coulombic Fourier/kʙ    0.000000e+00 ( 0.000000e+00 +/- 0.000000e+00) [K]
Molecule-molecule
    Van der Waals/kʙ        0.000000e+00 ( 0.000000e+00 +/- 0.000000e+00) [K]
    Van der Waals (Tail)/kʙ 0.000000e+00 ( 0.000000e+00 +/- 0.000000e+00) [K]
    Coulombic Real/kʙ       0.000000e+00 ( 0.000000e+00 +/- 0.000000e+00) [K]
    Coulombic Fourier/kʙ    0.000000e+00 ( 0.000000e+00 +/- 0.000000e+00) [K]
    Molecule Intra/kʙ       0.000000e+00 ( 0.000000e+00 +/- 0.000000e+00) [K]
Polarization energy/kʙ      0.000000e+00 ( 0.000000e+00 +/- 0.000000e+00) [K]

Current cycle: 10000 out of 20000
===============================================================================

Box:      27.35000 -13.67500   0.00000  Average:  27.35000 -13.67500   0.00000
           0.00000  23.68579   0.00000             0.00000  23.68579   0.00000
           0.00000   0.00000  29.53400             0.00000   0.00000  29.53400
Lengths:  27.35000  27.35000  29.53400  Average:  27.35000  27.35000  29.53400
Angles:   90.00000  90.00000 120.00000  Average:  90.00000  90.00000 120.00000
Triclinic boundary conditions

Net charge:  -0.00000000

component 0 (CO2) lambda:  0 occupancy:  1 (1.000000)
    net charge:   0.00000000 [e]

Amount of molecules per component:
-------------------------------------------------------------------------------
Component 0 (CO2)
    absolute adsorption: 0.000000e+00 molecules (0.000000e+00 +/- 0.000000e+00)
                         0.000000e+00 molec./uc (0.000000e+00 +/- 0.000000e+00)
                         0.000000e+00 mol/kg    (0.000000e+00 +/- 0.000000e+00)
                         0.000000e+00 mg/g      (0.000000e+00 +/- 0.000000e+00)
    excess adsorption:   0.000000e+00 molecules (0.000000e+00 +/- 0.000000e+00)
                         0.000000e+00 molec./uc (0.000000e+00 +/- 0.000000e+00)
                         0.000000e+00 mol/kg    (0.000000e+00 +/- 0.000000e+00)
                         0.000000e+00 mg/g      (0.000000e+00 +/- 0.000000e+00)

Total potential energy/kʙ   0.000000e+00 ( 0.000000e+00 +/- 0.000000e+00) [K]
-------------------------------------------------------------------------------
ExternalField-molecule
    Van der Waals/kʙ        0.000000e+00 ( 0.000000e+00 +/- 0.000000e+00) [K]
Framework-molecule
    Van der Waals/kʙ        0.000000e+00 ( 0.000000e+00 +/- 0.000000e+00) [K]
    Van der Waals (Tail)/kʙ 0.000000e+00 ( 0.000000e+00 +/- 0.000000e+00) [K]
    Coulombic Real/kʙ       0.000000e+00 ( 0.000000e+00 +/- 0.000000e+00) [K]
    Coulombic Fourier/kʙ    0.000000e+00 ( 0.000000e+00 +/- 0.000000e+00) [K]
Molecule-molecule
    Van der Waals/kʙ        0.000000e+00 ( 0.000000e+00 +/- 0.000000e+00) [K]
    Van der Waals (Tail)/kʙ 0.000000e+00 ( 0.000000e+00 +/- 0.000000e+00) [K]
    Coulombic Real/kʙ       0.000000e+00 ( 0.000000e+00 +/- 0.000000e+00) [K]
    Coulombic Fourier/kʙ    0.000000e+00 ( 0.000000e+00 +/- 0.000000e+00) [K]
    Molecule Intra/kʙ       0.000000e+00 ( 0.000000e+00 +/- 0.000000e+00) [K]
Polarization energy/kʙ      0.000000e+00 ( 0.000000e+00 +/- 0.000000e+00) [K]

Current cycle: 10500 out of 20000
===============================================================================

Box:      27.35000 -13.67500   0.00000  Average:  27.35000 -13.67500   0.00000
           0.00000  23.68579   0.00000             0.00000  23.68579   0.00000
           0.00000   0.00000  29.53400             0.00000   0.00000  29.53400
Lengths:  27.35000  27.35000  29.53400  Average:  27.35000  27.35000  29.53400
Angles:   90.00000  90.00000 120.00000  Average:  90.00000  90.00000 120.00000
Triclinic boundary conditions

Net charge:  -0.00000000

component 0 (CO2) lambda:  0 occupancy:  1 (1.000000)
    net charge:   0.00000000 [e]

Amount of molecules per component:
-------------------------------------------------------------------------------
Component 0 (CO2)
    absolute adsorption: 0.000000e+00 molecules (0.000000e+00 +/- 0.000000e+00)
                         0.000000e+00 molec./uc (0.000000e+00 +/- 0.000000e+00)
                         0.000000e+00 mol/kg    (0.000000e+00 +/- 0.000000e+00)
                         0.000000e+00 mg/g      (0.000000e+00 +/- 0.000000e+00)
    excess adsorption:   0.000000e+00 molecules (0.000000e+00 +/- 0.000000e+00)
                         0.000000e+00 molec./uc (0.000000e+00 +/- 0.000000e+00)
                         0.000000e+00 mol/kg    (0.000000e+00 +/- 0.000000e+00)
                         0.000000e+00 mg/g      (0.000000e+00 +/- 0.000000e+00)

Total potential energy/kʙ   0.000000e+00 ( 0.000000e+00 +/- 0.000000e+00) [K]
-------------------------------------------------------------------------------
ExternalField-molecule
    Van der Waals/kʙ        0.000000e+00 ( 0.000000e+00 +/- 0.000000e+00) [K]
Framework-molecule
    Van der Waals/kʙ        0.000000e+00 ( 0.000000e+00 +/- 0.000000e+00) [K]
    Van der Waals (Tail)/kʙ 0.000000e+00 ( 0.000000e+00 +/- 0.000000e+00) [K]
    Coulombic Real/kʙ       0.000000e+00 ( 0.000000e+00 +/- 0.000000e+00) [K]
    Coulombic Fourier/kʙ    0.000000e+00 ( 0.000000e+00 +/- 0.000000e+00) [K]
Molecule-molecule
    Van der Waals/kʙ        0.000000e+00 ( 0.000000e+00 +/- 0.000000e+00) [K]
    Van der Waals (Tail)/kʙ 0.000000e+00 ( 0.000000e+00 +/- 0.000000e+00) [K]
    Coulombic Real/kʙ       0.000000e+00 ( 0.000000e+00 +/- 0.000000e+00) [K]
    Coulombic Fourier/kʙ    0.000000e+00 ( 0.000000e+00 +/- 0.000000e+00) [K]
    Molecule Intra/kʙ       0.000000e+00 ( 0.000000e+00 +/- 0.000000e+00) [K]
Polarization energy/kʙ      0.000000e+00 ( 0.000000e+00 +/- 0.000000e+00) [K]

Current cycle: 11000 out of 20000
===============================================================================

Box:      27.35000 -13.67500   0.00000  Average:  27.35000 -13.67500   0.00000
           0.00000  23.68579   0.00000             0.00000  23.68579   0.00000
           0.00000   0.00000  29.53400             0.00000   0.00000  29.53400
Lengths:  27.35000  27.35000  29.53400  Average:  27.35000  27.35000  29.53400
Angles:   90.00000  90.00000 120.00000  Average:  90.00000  90.00000 120.00000
Triclinic boundary conditions

Net charge:  -0.00000000

component 0 (CO2) lambda:  0 occupancy:  1 (1.000000)
    net charge:   0.00000000 [e]

Amount of molecules per component:
-------------------------------------------------------------------------------
Component 0 (CO2)
    absolute adsorption: 0.000000e+00 molecules (0.000000e+00 +/- 0.000000e+00)
                         0.000000e+00 molec./uc (0.000000e+00 +/- 0.000000e+00)
                         0.000000e+00 mol/kg    (0.000000e+00 +/- 0.000000e+00)
                         0.000000e+00 mg/g      (0.000000e+00 +/- 0.000000e+00)
    excess adsorption:   0.000000e+00 molecules (0.000000e+00 +/- 0.000000e+00)
                         0.000000e+00 molec./uc (0.000000e+00 +/- 0.000000e+00)
                         0.000000e+00 mol/kg    (0.000000e+00 +/- 0.000000e+00)
                         0.000000e+00 mg/g      (0.000000e+00 +/- 0.000000e+00)

Total potential energy/kʙ   0.000000e+00 ( 0.000000e+00 +/- 0.000000e+00) [K]
-------------------------------------------------------------------------------
ExternalField-molecule
    Van der Waals/kʙ        0.000000e+00 ( 0.000000e+00 +/- 0.000000e+00) [K]
Framework-molecule
    Van der Waals/kʙ        0.000000e+00 ( 0.000000e+00 +/- 0.000000e+00) [K]
    Van der Waals (Tail)/kʙ 0.000000e+00 ( 0.000000e+00 +/- 0.000000e+00) [K]
    Coulombic Real/kʙ       0.000000e+00 ( 0.000000e+00 +/- 0.000000e+00) [K]
    Coulombic Fourier/kʙ    0.000000e+00 ( 0.000000e+00 +/- 0.000000e+00) [K]
Molecule-molecule
    Van der Waals/kʙ        0.000000e+00 ( 0.000000e+00 +/- 0.000000e+00) [K]
    Van der Waals (Tail)/kʙ 0.000000e+00 ( 0.000000e+00 +/- 0.000000e+00) [K]
    Coulombic Real/kʙ       0.000000e+00 ( 0.000000e+00 +/- 0.000000e+00) [K]
    Coulombic Fourier/kʙ    0.000000e+00 ( 0.000000e+00 +/- 0.000000e+00) [K]
    Molecule Intra/kʙ       0.000000e+00 ( 0.000000e+00 +/- 0.000000e+00) [K]
Polarization energy/kʙ      0.000000e+00 ( 0.000000e+00 +/- 0.000000e+00) [K]

Current cycle: 11500 out of 20000
===============================================================================

Box:      27.35000 -13.67500   0.00000  Average:  27.35000 -13.67500   0.00000
           0.00000  23.68579   0.00000             0.00000  23.68579   0.00000
           0.00000   0.00000  29.53400             0.00000   0.00000  29.53400
Lengths:  27.35000  27.35000  29.53400  Average:  27.35000  27.35000  29.53400
Angles:   90.00000  90.00000 120.00000  Average:  90.00000  90.00000 120.00000
Triclinic boundary conditions

Net charge:  -0.00000000

component 0 (CO2) lambda:  0 occupancy:  1 (1.000000)
    net charge:   0.00000000 [e]

Amount of molecules per component:
-------------------------------------------------------------------------------
Component 0 (CO2)
    absolute adsorption: 0.000000e+00 molecules (0.000000e+00 +/- 0.000000e+00)
                         0.000000e+00 molec./uc (0.000000e+00 +/- 0.000000e+00)
                         0.000000e+00 mol/kg    (0.000000e+00 +/- 0.000000e+00)
                         0.000000e+00 mg/g      (0.000000e+00 +/- 0.000000e+00)
    excess adsorption:   0.000000e+00 molecules (0.000000e+00 +/- 0.000000e+00)
                         0.000000e+00 molec./uc (0.000000e+00 +/- 0.000000e+00)
                         0.000000e+00 mol/kg    (0.000000e+00 +/- 0.000000e+00)
                         0.000000e+00 mg/g      (0.000000e+00 +/- 0.000000e+00)

Total potential energy/kʙ   0.000000e+00 ( 0.000000e+00 +/- 0.000000e+00) [K]
-------------------------------------------------------------------------------
ExternalField-molecule
    Van der Waals/kʙ        0.000000e+00 ( 0.000000e+00 +/- 0.000000e+00) [K]
Framework-molecule
    Van der Waals/kʙ        0.000000e+00 ( 0.000000e+00 +/- 0.000000e+00) [K]
    Van der Waals (Tail)/kʙ 0.000000e+00 ( 0.000000e+00 +/- 0.000000e+00) [K]
    Coulombic Real/kʙ       0.000000e+00 ( 0.000000e+00 +/- 0.000000e+00) [K]
    Coulombic Fourier/kʙ    0.000000e+00 ( 0.000000e+00 +/- 0.000000e+00) [K]
Molecule-molecule
    Van der Waals/kʙ        0.000000e+00 ( 0.000000e+00 +/- 0.000000e+00) [K]
    Van der Waals (Tail)/kʙ 0.000000e+00 ( 0.000000e+00 +/- 0.000000e+00) [K]
    Coulombic Real/kʙ       0.000000e+00 ( 0.000000e+00 +/- 0.000000e+00) [K]
    Coulombic Fourier/kʙ    0.000000e+00 ( 0.000000e+00 +/- 0.000000e+00) [K]
    Molecule Intra/kʙ       0.000000e+00 ( 0.000000e+00 +/- 0.000000e+00) [K]
Polarization energy/kʙ      0.000000e+00 ( 0.000000e+00 +/- 0.000000e+00) [K]

Current cycle: 12000 out of 20000
===============================================================================

Box:      27.35000 -13.67500   0.00000  Average:  27.35000 -13.67500   0.00000
           0.00000  23.68579   0.00000             0.00000  23.68579   0.00000
           0.00000   0.00000  29.53400             0.00000   0.00000  29.53400
Lengths:  27.35000  27.35000  29.53400  Average:  27.35000  27.35000  29.53400
Angles:   90.00000  90.00000 120.00000  Average:  90.00000  90.00000 120.00000
Triclinic boundary conditions

Net charge:  -0.00000000

component 0 (CO2) lambda:  0 occupancy:  1 (1.000000)
    net charge:   0.00000000 [e]

Amount of molecules per component:
-------------------------------------------------------------------------------
Component 0 (CO2)
    absolute adsorption: 0.000000e+00 molecules (0.000000e+00 +/- 0.000000e+00)
                         0.000000e+00 molec./uc (0.000000e+00 +/- 0.000000e+00)
                         0.000000e+00 mol/kg    (0.000000e+00 +/- 0.000000e+00)
                         0.000000e+00 mg/g      (0.000000e+00 +/- 0.000000e+00)
    excess adsorption:   0.000000e+00 molecules (0.000000e+00 +/- 0.000000e+00)
                         0.000000e+00 molec./uc (0.000000e+00 +/- 0.000000e+00)
                         0.000000e+00 mol/kg    (0.000000e+00 +/- 0.000000e+00)
                         0.000000e+00 mg/g      (0.000000e+00 +/- 0.000000e+00)

Total potential energy/kʙ   0.000000e+00 ( 0.000000e+00 +/- 0.000000e+00) [K]
-------------------------------------------------------------------------------
ExternalField-molecule
    Van der Waals/kʙ        0.000000e+00 ( 0.000000e+00 +/- 0.000000e+00) [K]
Framework-molecule
    Van der Waals/kʙ        0.000000e+00 ( 0.000000e+00 +/- 0.000000e+00) [K]
    Van der Waals (Tail)/kʙ 0.000000e+00 ( 0.000000e+00 +/- 0.000000e+00) [K]
    Coulombic Real/kʙ       0.000000e+00 ( 0.000000e+00 +/- 0.000000e+00) [K]
    Coulombic Fourier/kʙ    0.000000e+00 ( 0.000000e+00 +/- 0.000000e+00) [K]
Molecule-molecule
    Van der Waals/kʙ        0.000000e+00 ( 0.000000e+00 +/- 0.000000e+00) [K]
    Van der Waals (Tail)/kʙ 0.000000e+00 ( 0.000000e+00 +/- 0.000000e+00) [K]
    Coulombic Real/kʙ       0.000000e+00 ( 0.000000e+00 +/- 0.000000e+00) [K]
    Coulombic Fourier/kʙ    0.000000e+00 ( 0.000000e+00 +/- 0.000000e+00) [K]
    Molecule Intra/kʙ       0.000000e+00 ( 0.000000e+00 +/- 0.000000e+00) [K]
Polarization energy/kʙ      0.000000e+00 ( 0.000000e+00 +/- 0.000000e+00) [K]

Current cycle: 12500 out of 20000
===============================================================================

Box:      27.35000 -13.67500   0.00000  Average:  27.35000 -13.67500   0.00000
           0.00000  23.68579   0.00000             0.00000  23.68579   0.00000
           0.00000   0.00000  29.53400             0.00000   0.00000  29.53400
Lengths:  27.35000  27.35000  29.53400  Average:  27.35000  27.35000  29.53400
Angles:   90.00000  90.00000 120.00000  Average:  90.00000  90.00000 120.00000
Triclinic boundary conditions

Net charge:  -0.00000000

component 0 (CO2) lambda:  0 occupancy:  1 (1.000000)
    net charge:   0.00000000 [e]

Amount of molecules per component:
-------------------------------------------------------------------------------
Component 0 (CO2)
    absolute adsorption: 0.000000e+00 molecules (0.000000e+00 +/- 0.000000e+00)
                         0.000000e+00 molec./uc (0.000000e+00 +/- 0.000000e+00)
                         0.000000e+00 mol/kg    (0.000000e+00 +/- 0.000000e+00)
                         0.000000e+00 mg/g      (0.000000e+00 +/- 0.000000e+00)
    excess adsorption:   0.000000e+00 molecules (0.000000e+00 +/- 0.000000e+00)
                         0.000000e+00 molec./uc (0.000000e+00 +/- 0.000000e+00)
                         0.000000e+00 mol/kg    (0.000000e+00 +/- 0.000000e+00)
                         0.000000e+00 mg/g      (0.000000e+00 +/- 0.000000e+00)

Total potential energy/kʙ   0.000000e+00 ( 0.000000e+00 +/- 0.000000e+00) [K]
-------------------------------------------------------------------------------
ExternalField-molecule
    Van der Waals/kʙ        0.000000e+00 ( 0.000000e+00 +/- 0.000000e+00) [K]
Framework-molecule
    Van der Waals/kʙ        0.000000e+00 ( 0.000000e+00 +/- 0.000000e+00) [K]
    Van der Waals (Tail)/kʙ 0.000000e+00 ( 0.000000e+00 +/- 0.000000e+00) [K]
    Coulombic Real/kʙ       0.000000e+00 ( 0.000000e+00 +/- 0.000000e+00) [K]
    Coulombic Fourier/kʙ    0.000000e+00 ( 0.000000e+00 +/- 0.000000e+00) [K]
Molecule-molecule
    Van der Waals/kʙ        0.000000e+00 ( 0.000000e+00 +/- 0.000000e+00) [K]
    Van der Waals (Tail)/kʙ 0.000000e+00 ( 0.000000e+00 +/- 0.000000e+00) [K]
    Coulombic Real/kʙ       0.000000e+00 ( 0.000000e+00 +/- 0.000000e+00) [K]
    Coulombic Fourier/kʙ    0.000000e+00 ( 0.000000e+00 +/- 0.000000e+00) [K]
    Molecule Intra/kʙ       0.000000e+00 ( 0.000000e+00 +/- 0.000000e+00) [K]
Polarization energy/kʙ      0.000000e+00 ( 0.000000e+00 +/- 0.000000e+00) [K]

Current cycle: 13000 out of 20000
===============================================================================

Box:      27.35000 -13.67500   0.00000  Average:  27.35000 -13.67500   0.00000
           0.00000  23.68579   0.00000             0.00000  23.68579   0.00000
           0.00000   0.00000  29.53400             0.00000   0.00000  29.53400
Lengths:  27.35000  27.35000  29.53400  Average:  27.35000  27.35000  29.53400
Angles:   90.00000  90.00000 120.00000  Average:  90.00000  90.00000 120.00000
Triclinic boundary conditions

Net charge:  -0.00000000

component 0 (CO2) lambda:  0 occupancy:  1 (1.000000)
    net charge:   0.00000000 [e]

Amount of molecules per component:
-------------------------------------------------------------------------------
Component 0 (CO2)
    absolute adsorption: 0.000000e+00 molecules (0.000000e+00 +/- 0.000000e+00)
                         0.000000e+00 molec./uc (0.000000e+00 +/- 0.000000e+00)
                         0.000000e+00 mol/kg    (0.000000e+00 +/- 0.000000e+00)
                         0.000000e+00 mg/g      (0.000000e+00 +/- 0.000000e+00)
    excess adsorption:   0.000000e+00 molecules (0.000000e+00 +/- 0.000000e+00)
                         0.000000e+00 molec./uc (0.000000e+00 +/- 0.000000e+00)
                         0.000000e+00 mol/kg    (0.000000e+00 +/- 0.000000e+00)
                         0.000000e+00 mg/g      (0.000000e+00 +/- 0.000000e+00)

Total potential energy/kʙ   0.000000e+00 ( 0.000000e+00 +/- 0.000000e+00) [K]
-------------------------------------------------------------------------------
ExternalField-molecule
    Van der Waals/kʙ        0.000000e+00 ( 0.000000e+00 +/- 0.000000e+00) [K]
Framework-molecule
    Van der Waals/kʙ        0.000000e+00 ( 0.000000e+00 +/- 0.000000e+00) [K]
    Van der Waals (Tail)/kʙ 0.000000e+00 ( 0.000000e+00 +/- 0.000000e+00) [K]
    Coulombic Real/kʙ       0.000000e+00 ( 0.000000e+00 +/- 0.000000e+00) [K]
    Coulombic Fourier/kʙ    0.000000e+00 ( 0.000000e+00 +/- 0.000000e+00) [K]
Molecule-molecule
    Van der Waals/kʙ        0.000000e+00 ( 0.000000e+00 +/- 0.000000e+00) [K]
    Van der Waals (Tail)/kʙ 0.000000e+00 ( 0.000000e+00 +/- 0.000000e+00) [K]
    Coulombic Real/kʙ       0.000000e+00 ( 0.000000e+00 +/- 0.000000e+00) [K]
    Coulombic Fourier/kʙ    0.000000e+00 ( 0.000000e+00 +/- 0.000000e+00) [K]
    Molecule Intra/kʙ       0.000000e+00 ( 0.000000e+00 +/- 0.000000e+00) [K]
Polarization energy/kʙ      0.000000e+00 ( 0.000000e+00 +/- 0.000000e+00) [K]

Current cycle: 13500 out of 20000
===============================================================================

Box:      27.35000 -13.67500   0.00000  Average:  27.35000 -13.67500   0.00000
           0.00000  23.68579   0.00000             0.00000  23.68579   0.00000
           0.00000   0.00000  29.53400             0.00000   0.00000  29.53400
Lengths:  27.35000  27.35000  29.53400  Average:  27.35000  27.35000  29.53400
Angles:   90.00000  90.00000 120.00000  Average:  90.00000  90.00000 120.00000
Triclinic boundary conditions

Net charge:  -0.00000000

component 0 (CO2) lambda:  0 occupancy:  1 (1.000000)
    net charge:   0.00000000 [e]

Amount of molecules per component:
-------------------------------------------------------------------------------
Component 0 (CO2)
    absolute adsorption: 0.000000e+00 molecules (0.000000e+00 +/- 0.000000e+00)
[...]
Component 0 (CO2)
    absolute adsorption: 0.000000e+00 molecules (0.000000e+00 +/- 0.000000e+00)
                         0.000000e+00 molec./uc (0.000000e+00 +/- 0.000000e+00)
                         0.000000e+00 mol/kg    (0.000000e+00 +/- 0.000000e+00)
                         0.000000e+00 mg/g      (0.000000e+00 +/- 0.000000e+00)
    excess adsorption:   0.000000e+00 molecules (0.000000e+00 +/- 0.000000e+00)
                         0.000000e+00 molec./uc (0.000000e+00 +/- 0.000000e+00)
                         0.000000e+00 mol/kg    (0.000000e+00 +/- 0.000000e+00)
                         0.000000e+00 mg/g      (0.000000e+00 +/- 0.000000e+00)

Total potential energy/kʙ   0.000000e+00 ( 0.000000e+00 +/- 0.000000e+00) [K]
-------------------------------------------------------------------------------
ExternalField-molecule
    Van der Waals/kʙ        0.000000e+00 ( 0.000000e+00 +/- 0.000000e+00) [K]
Framework-molecule
    Van der Waals/kʙ        0.000000e+00 ( 0.000000e+00 +/- 0.000000e+00) [K]
    Van der Waals (Tail)/kʙ 0.000000e+00 ( 0.000000e+00 +/- 0.000000e+00) [K]
    Coulombic Real/kʙ       0.000000e+00 ( 0.000000e+00 +/- 0.000000e+00) [K]
    Coulombic Fourier/kʙ    0.000000e+00 ( 0.000000e+00 +/- 0.000000e+00) [K]
Molecule-molecule
    Van der Waals/kʙ        0.000000e+00 ( 0.000000e+00 +/- 0.000000e+00) [K]
    Van der Waals (Tail)/kʙ 0.000000e+00 ( 0.000000e+00 +/- 0.000000e+00) [K]
    Coulombic Real/kʙ       0.000000e+00 ( 0.000000e+00 +/- 0.000000e+00) [K]
    Coulombic Fourier/kʙ    0.000000e+00 ( 0.000000e+00 +/- 0.000000e+00) [K]
    Molecule Intra/kʙ       0.000000e+00 ( 0.000000e+00 +/- 0.000000e+00) [K]
Polarization energy/kʙ      0.000000e+00 ( 0.000000e+00 +/- 0.000000e+00) [K]


===============================================================================
                             Simulation finished!
===============================================================================

Final state after 20000 cycles
===============================================================================

Box:      27.35000 -13.67500   0.00000  Average:  27.35000 -13.67500   0.00000
           0.00000  23.68579   0.00000             0.00000  23.68579   0.00000
           0.00000   0.00000  29.53400             0.00000   0.00000  29.53400
Lengths:  27.35000  27.35000  29.53400  Average:  27.35000  27.35000  29.53400
Angles:   90.00000  90.00000 120.00000  Average:  90.00000  90.00000 120.00000
Triclinic boundary conditions

Net charge:  -0.00000000

component 0 (CO2) lambda:  0 occupancy:  1 (1.000000)
    net charge:   0.00000000 [e]

Amount of molecules per component:
-------------------------------------------------------------------------------
Component 0 (CO2)
    absolute adsorption: 0.000000e+00 molecules (0.000000e+00 +/- 0.000000e+00)
                         0.000000e+00 molec./uc (0.000000e+00 +/- 0.000000e+00)
                         0.000000e+00 mol/kg    (0.000000e+00 +/- 0.000000e+00)
                         0.000000e+00 mg/g      (0.000000e+00 +/- 0.000000e+00)
    excess adsorption:   0.000000e+00 molecules (0.000000e+00 +/- 0.000000e+00)
                         0.000000e+00 molec./uc (0.000000e+00 +/- 0.000000e+00)
                         0.000000e+00 mol/kg    (0.000000e+00 +/- 0.000000e+00)
                         0.000000e+00 mg/g      (0.000000e+00 +/- 0.000000e+00)

Total potential energy/kʙ   0.000000e+00 ( 0.000000e+00 +/- 0.000000e+00) [K]
-------------------------------------------------------------------------------
ExternalField-molecule
    Van der Waals/kʙ        0.000000e+00 ( 0.000000e+00 +/- 0.000000e+00) [K]
Framework-molecule
    Van der Waals/kʙ        0.000000e+00 ( 0.000000e+00 +/- 0.000000e+00) [K]
    Van der Waals (Tail)/kʙ 0.000000e+00 ( 0.000000e+00 +/- 0.000000e+00) [K]
    Coulombic Real/kʙ       0.000000e+00 ( 0.000000e+00 +/- 0.000000e+00) [K]
    Coulombic Fourier/kʙ    0.000000e+00 ( 0.000000e+00 +/- 0.000000e+00) [K]
Molecule-molecule
    Van der Waals/kʙ        0.000000e+00 ( 0.000000e+00 +/- 0.000000e+00) [K]
    Van der Waals (Tail)/kʙ 0.000000e+00 ( 0.000000e+00 +/- 0.000000e+00) [K]
    Coulombic Real/kʙ       0.000000e+00 ( 0.000000e+00 +/- 0.000000e+00) [K]
    Coulombic Fourier/kʙ    0.000000e+00 ( 0.000000e+00 +/- 0.000000e+00) [K]
    Molecule Intra/kʙ       0.000000e+00 ( 0.000000e+00 +/- 0.000000e+00) [K]
Polarization energy/kʙ      0.000000e+00 ( 0.000000e+00 +/- 0.000000e+00) [K]


Energy statistics             |  Energy [K]   | Recomputed [K]|  Drift [K]    |
===============================================================================
Total potential energy/kʙ     |  0.000000e+00 |  0.000000e+00 |  0.000000e+00 |
    external field VDW/kʙ     |  0.000000e+00 |  0.000000e+00 |  0.000000e+00 |
    external field Real/kʙ    |  0.000000e+00 |  0.000000e+00 |  0.000000e+00 |
    framework-molecule VDW/kʙ |  0.000000e+00 |  0.000000e+00 |  0.000000e+00 |
    framework-molecule Real/kʙ|  0.000000e+00 |  0.000000e+00 |  0.000000e+00 |
    molecule-molecule VDW/kʙ  |  0.000000e+00 |  0.000000e+00 |  0.000000e+00 |
    molecule-molecule Real/kʙ |  0.000000e+00 |  0.000000e+00 |  0.000000e+00 |
    Van der Waals (Tail)/kʙ   |  0.000000e+00 |  0.000000e+00 |  0.000000e+00 |
    Ewald Fourier/kʙ          |  0.000000e+00 |  0.000000e+00 |  0.000000e+00 |
    Ewald self/kʙ             |  0.000000e+00 |  0.000000e+00 |  0.000000e+00 |
    Ewald exclusion/kʙ        |  0.000000e+00 |  0.000000e+00 |  0.000000e+00 |
    bond/kʙ                   |  0.000000e+00 |  0.000000e+00 |  0.000000e+00 |
    Urey-Bradley/kʙ           |  0.000000e+00 |  0.000000e+00 |  0.000000e+00 |
    bend/kʙ                   |  0.000000e+00 |  0.000000e+00 |  0.000000e+00 |
    inversion bend/kʙ         |  0.000000e+00 |  0.000000e+00 |  0.000000e+00 |
    out-of-plane bend/kʙ      |  0.000000e+00 |  0.000000e+00 |  0.000000e+00 |
    torsion/kʙ                |  0.000000e+00 |  0.000000e+00 |  0.000000e+00 |
    improper torsion/kʙ       |  0.000000e+00 |  0.000000e+00 |  0.000000e+00 |
    bond-bond/kʙ              |  0.000000e+00 |  0.000000e+00 |  0.000000e+00 |
    bond-bend/kʙ              |  0.000000e+00 |  0.000000e+00 |  0.000000e+00 |
    bond-torsion/kʙ           |  0.000000e+00 |  0.000000e+00 |  0.000000e+00 |
    bend-bend/kʙ              |  0.000000e+00 |  0.000000e+00 |  0.000000e+00 |
    bend-torsion/kʙ           |  0.000000e+00 |  0.000000e+00 |  0.000000e+00 |
    intra VDW/kʙ              |  0.000000e+00 |  0.000000e+00 |  0.000000e+00 |
    intra Coulombic/kʙ        |  0.000000e+00 |  0.000000e+00 |  0.000000e+00 |
    polarization/kʙ           |  0.000000e+00 |  0.000000e+00 |  0.000000e+00 |
    dU/dlambda VDW/kʙ         |  0.000000e+00 |  0.000000e+00 |  0.000000e+00 |
    dU/dlambda Real/kʙ        |  0.000000e+00 |  0.000000e+00 |  0.000000e+00 |
    dU/dlambda Ewald/kʙ       |  0.000000e+00 |  0.000000e+00 |  0.000000e+00 |
-------------------------------------------------------------------------------


Monte-Carlo moves statistics
===============================================================================

Component 0 [CO2]
    Widom                all:              400000
    Widom                total:             4e+05
    Widom                constructed:      392153
    Widom                accepted:              0
    Widom                fraction:       0.000000
    Widom                max-change:     0.000000

    Widom insertion Rosenbluth weight statistics:
    ---------------------------------------------------------------------------
        Block[  0]  6.385342e+01
        Block[  1]  8.927709e+01
        Block[  2]  7.065471e+01
        Block[  3]  5.940479e+01
        Block[  4]  7.521861e+01
    ---------------------------------------------------------------------------
    Average Rosenbluth weight:    7.168172e+01 +/-  1.435982e+01 [-]


    Henry coefficient based on Rosenbluth weight:
    ---------------------------------------------------------------------------
        Block[  0]  1.715063e-05
        Block[  1]  2.397927e-05
        Block[  2]  1.897742e-05
        Block[  3]  1.595576e-05
        Block[  4]  2.020325e-05
    ---------------------------------------------------------------------------
    Average Henry coefficient:    1.925326e-05 +/-  3.856958e-06 [mol/kg/Pa]
    Average Henry coefficient:    4.164548e-05 +/-  8.342734e-06 [molec./uc/Pa]


    Widom insertion chemical potential statistics:
    ---------------------------------------------------------------------------
        Block[  0] -1239.288454821046
        Block[  1] -1339.21492804394
        Block[  2] -1269.4656235670775
        Block[  3] -1217.7574488386158
        Block[  4] -1288.1279967053138
    ---------------------------------------------------------------------------
    Excess chemical potential:          -1.273768e+03 +/-  5.834241e+01 [K]
    Ideal chemical potential:           -inf +/- -nan [K]
    Total chemical potential:           -inf +/- -nan [K]
    Imposed chemical potential:         -inf [K]
    ---------------------------------------------------------------------------
    Excess chemical potential:          -1.059070e+01 +/-  4.850859e-01 [kJ/mol]
    Ideal chemical potential:           -inf +/- -nan [kJ/mol]
    Total chemical potential:           -inf +/- -nan [kJ/mol]
    Imposed chemical potential:         -inf [kJ/mol]

    Widom insertion fugacity statistics:
    ---------------------------------------------------------------------------
        Block[  0] 0
        Block[  1] 0
        Block[  2] 0
        Block[  3] 0
        Block[  4] 0
    ---------------------------------------------------------------------------
    Measured fugacity:           0.000000e+00 +/-  0.000000e+00 [Pa]
    Imposed fugacity:          0.000000e+00 [K]




Production run counting of the MC moves summed over systems and components
===============================================================================

Widom                                400000 (100.0000 [%])

Production count MC-steps:           400000 [-]
               All summed:           400000 [-]
               difference:                0 [-]


Production run CPU timings of the MC moves
===============================================================================

Component 0 CO2

Widom                               247.628186 [s]
    Ewald                             4.670307 [s]
    NonEwald                        242.138693 [s]
    Tail                              0.690318 [s]
    Overhead                          0.128870 [s]



Property sampling                     0.196764 [s]
Energy/pressure sampling:             0.512808 [s]


Production run CPU timings of the MC moves summed over systems and components
===============================================================================


Widom                               247.628186 [s]
    Ewald                             4.670307 [s]
    NonEwald                        242.138693 [s]
    Tail                              0.690318 [s]
    Overhead                          0.128870 [s]

Property sampling:                    0.196764 [s]
Energy/pressure sampling:             0.512808 [s]

Production simulation time:         248.436739 [s]
                All summed:         248.337758 [s]
                  Overhead:           0.098981 [s]


Initalization simulation time:        0.000000 [s]
Equilibration simulation time:        0.000000 [s]
Production simulation time:         248.436739 [s]
Total simulation time:              248.436739 [s]


Energy averages and statistics:
===============================================================================

Framework-molecule energy:
-------------------------------------------------------------------------------

    Framework-molecule energy/kʙ 0-0 [CO2]:
    ---------------------------------------------------------------------------
        Block[  0]  0.000000e+00
        Block[  1]  0.000000e+00
        Block[  2]  0.000000e+00
        Block[  3]  0.000000e+00
        Block[  4]  0.000000e+00
        -----------------------------------------------------------------------
        Average   0.000000e+00 +/-  0.000000e+00 [K]



Framework-molecule energy contributions per energy type:
-------------------------------------------------------------------------------

    Van der Waals energy/kʙ 0-0 [CO2]:
    ---------------------------------------------------------------------------
        Block[  0]  0.000000e+00
        Block[  1]  0.000000e+00
        Block[  2]  0.000000e+00
        Block[  3]  0.000000e+00
        Block[  4]  0.000000e+00
        -----------------------------------------------------------------------
        Average   0.000000e+00 +/-  0.000000e+00 [K]

    VDW Tail-Correction energy/kʙ 0-0 [CO2]:
    ---------------------------------------------------------------------------
        Block[  0]  0.000000e+00
        Block[  1]  0.000000e+00
        Block[  2]  0.000000e+00
        Block[  3]  0.000000e+00
        Block[  4]  0.000000e+00
        -----------------------------------------------------------------------
        Average   0.000000e+00 +/-  0.000000e+00 [K]

    Coulomb Real energy/kʙ 0-0 [CO2]:
    ---------------------------------------------------------------------------
        Block[  0]  0.000000e+00
        Block[  1]  0.000000e+00
        Block[  2]  0.000000e+00
        Block[  3]  0.000000e+00
        Block[  4]  0.000000e+00
        -----------------------------------------------------------------------
        Average   0.000000e+00 +/-  0.000000e+00 [K]

    Coulomb Fourier energy/kʙ 0-0 [CO2]:
    ---------------------------------------------------------------------------
        Block[  0]  0.000000e+00
        Block[  1]  0.000000e+00
        Block[  2]  0.000000e+00
        Block[  3]  0.000000e+00
        Block[  4]  0.000000e+00
        -----------------------------------------------------------------------
        Average   0.000000e+00 +/-  0.000000e+00 [K]



Inter-molecular energy:
-------------------------------------------------------------------------------

    Inter-molecular energy/kʙ 0-0 [CO2-CO2]:
    ---------------------------------------------------------------------------
        Block[  0]  0.000000e+00
        Block[  1]  0.000000e+00
        Block[  2]  0.000000e+00
        Block[  3]  0.000000e+00
        Block[  4]  0.000000e+00
        -----------------------------------------------------------------------
        Average   0.000000e+00 +/-  0.000000e+00 [K]



Inter-molecular energy contributions per energy type:
-------------------------------------------------------------------------------

    Van der Waals energy/kʙ 0-0 [CO2-CO2]:
    ---------------------------------------------------------------------------
        Block[  0]  0.000000e+00
        Block[  1]  0.000000e+00
        Block[  2]  0.000000e+00
        Block[  3]  0.000000e+00
        Block[  4]  0.000000e+00
        -----------------------------------------------------------------------
        Average   0.000000e+00 +/-  0.000000e+00 [K]

    VDW Tail-Correction energy/kʙ 0-0 [CO2-CO2]:
    ---------------------------------------------------------------------------
        Block[  0]  0.000000e+00
        Block[  1]  0.000000e+00
        Block[  2]  0.000000e+00
        Block[  3]  0.000000e+00
        Block[  4]  0.000000e+00
        -----------------------------------------------------------------------
        Average   0.000000e+00 +/-  0.000000e+00 [K]

    Coulomb Real energy/kʙ 0-0 [CO2-CO2]:
    ---------------------------------------------------------------------------
        Block[  0]  0.000000e+00
        Block[  1]  0.000000e+00
        Block[  2]  0.000000e+00
        Block[  3]  0.000000e+00
        Block[  4]  0.000000e+00
        -----------------------------------------------------------------------
        Average   0.000000e+00 +/-  0.000000e+00 [K]

    Coulomb Fourier energy/kʙ 0-0 [CO2-CO2]:
    ---------------------------------------------------------------------------
        Block[  0]  0.000000e+00
        Block[  1]  0.000000e+00
        Block[  2]  0.000000e+00
        Block[  3]  0.000000e+00
        Block[  4]  0.000000e+00
        -----------------------------------------------------------------------
        Average   0.000000e+00 +/-  0.000000e+00 [K]

Intra-molecular energies per energy type:
-------------------------------------------------------------------------------


Kinetic Energies:
-------------------------------------------------------------------------------

    Translational Kinetic energy/kʙ
    ---------------------------------------------------------------------------
        Block[  0]  0.000000e+00
        Block[  1]  0.000000e+00
        Block[  2]  0.000000e+00
        Block[  3]  0.000000e+00
        Block[  4]  0.000000e+00
        -----------------------------------------------------------------------
        Average   0.000000e+00 +/-  0.000000e+00 [K]

    Rotational Kinetic energy/kʙ
    ---------------------------------------------------------------------------
        Block[  0]  0.000000e+00
        Block[  1]  0.000000e+00
        Block[  2]  0.000000e+00
        Block[  3]  0.000000e+00
        Block[  4]  0.000000e+00
        -----------------------------------------------------------------------
        Average   0.000000e+00 +/-  0.000000e+00 [K]

    Nose Hoover energy/kʙ
    ---------------------------------------------------------------------------
        Block[  0]  0.000000e+00
        Block[  1]  0.000000e+00
        Block[  2]  0.000000e+00
        Block[  3]  0.000000e+00
        Block[  4]  0.000000e+00
        -----------------------------------------------------------------------
        Average   0.000000e+00 +/-  0.000000e+00 [K]

Polarization energy/kʙ
-------------------------------------------------------------------------------
    Block[  0]  0.000000e+00
    Block[  1]  0.000000e+00
    Block[  2]  0.000000e+00
    Block[  3]  0.000000e+00
    Block[  4]  0.000000e+00
    ---------------------------------------------------------------------------
    Average   0.000000e+00 +/-  0.000000e+00 [K]

Total energy/kʙ
-------------------------------------------------------------------------------
    Block[  0]  0.000000e+00
    Block[  1]  0.000000e+00
    Block[  2]  0.000000e+00
    Block[  3]  0.000000e+00
    Block[  4]  0.000000e+00
    ---------------------------------------------------------------------------
    Average   0.000000e+00 +/-  0.000000e+00 [K]

Enthalpy of adsorption
===============================================================================

No fluctuating components present.


LoadingData
===============================================================================

Component 0 (CO2)
    Block[  0]  0.000000e+00
    Block[  1]  0.000000e+00
    Block[  2]  0.000000e+00
    Block[  3]  0.000000e+00
    Block[  4]  0.000000e+00
    ---------------------------------------------------------------------------
    Abs. loading average   0.000000e+00 +/-  0.000000e+00 [molecules/cell]
    Abs. loading average   0.000000e+00 +/-  0.000000e+00 [molecules/uc]
    Abs. loading average   0.000000e+00 +/-  0.000000e+00 [mol/kg-framework]
    Abs. loading average   0.000000e+00 +/-  0.000000e+00 [mg/g-framework]

    Block[  0]  0.000000e+00
    Block[  1]  0.000000e+00
    Block[  2]  0.000000e+00
    Block[  3]  0.000000e+00
    Block[  4]  0.000000e+00
    ---------------------------------------------------------------------------
    Excess loading average   0.000000e+00 +/-  0.000000e+00 [molecules/cell]
    Excess loading average   0.000000e+00 +/-  0.000000e+00 [molecules/uc]
    Excess loading average   0.000000e+00 +/-  0.000000e+00 [mol/kg-framework]
    Excess loading average   0.000000e+00 +/-  0.000000e+00 [mg/g-framework]



