Compiler and run-time data
===========================================================================
RASPA 2.0.50
Compiled as a 64-bits application
Compiler: gcc 12.3.0
Compile Date = Jul 13 2024, Compile Time = 20:27:09

Sun May 17 21:56:13 2026
Simulation started on Sunday, May 17.
The start time was 09:56 PM.

Hostname:    wselimited-3
OS type:     Linux on x86_64
OS release:  6.8.0-111-generic
OS version:  #111~22.04.1-Ubuntu SMP PREEMPT_DYNAMIC Tue Apr 14 17:13:45 UTC 

Simulation
===========================================================================
Dimensions: 3
Random number seed: 1755481405
RASPA directory set to: evidence/v04_1a_raspa2/evidence/1a/T323_seed2
String appended to output-files: 
Number of cycles: 10000
Number of initializing cycles: 0
Number of equilibration cycles: 0
Print every: 1000
Triclinic boundary condition applied
Timestep: 0.000500
	Degrees of freedom:                        0
	Translational Degrees of freedom:          0
	Rotational Degrees of freedom:             0
	Degrees of freedom Framework:              0


Mutual consistent basic set of units:
======================================
Unit of temperature: Kelvin
Unit of length:      1e-10 [m]
Unit of time:        1e-12 [s]
Unit of mass:        1.66054e-27 [kg]
Unit of charge:      1.60218e-19 [C/particle]

Derived units and their conversion factors:
===========================================
Unit of energy:              1.66054e-23 [J]
Unit of force:               1.66054e-13 [N]
Unit of pressure:            1.66054e+07 [Pa]
Unit of velocity:            100 [m/s]
Unit of acceleration:        1e-08 [m^2/s]
Unit of diffusion:           1e-08 [m^2/s]
Unit of dipole moment:       1.60218e-29 [C.m]
Unit of electric potential:  0.000103643 [V]
Unit of electric field:      1.03643e+06 [V]
Unit of polarizability:      1.54587e-35 [-]
Unit of Coulomb potential:   167101.0800066561  [K]
Unit of dielectric constant: 0.0000154587       [s^2 C^2/(kg m^3)]
Unit of wave vectors:        5.3088374589       [cm^1]
Boltzmann constant:          0.8314464919       [-]

Internal conversion factors:
===========================================
Energy to Kelvin:                                    1.2027242847
FH correction factor                                 2.0211930949
Heat capacity conversion factor:                    10.0000088723
From Debye to internal units:                        4.8032067991
Isothermal compressibility conversion factor:        0.0000000602

Energy conversion factors:
===========================================
From mdyne/A to kcal/mol/A^2:           143.933
From mdyne/A to kj/mol/A^2:             602.214
From mdyne/A to K/A^2:                  72429.7
From mdyne A/rad^2 to kcal/mol/deg^2:   0.0438444


Properties computed
===========================================================================
Movies: no
Radial Distribution Function: no
Number of molecules GCMC histogram: no
Histogram of the molecule positions: no
Free energy profiles: no
Pore Size Distribution Function: no
End-to-end distance: no
Histogram of the energy of the system: no
Compute thermodynamic factors: no
Framework spacing histograms: no
Residence times histograms: no
Distance histograms: no
Bend Angle histograms: no
Dihedral angle histograms: no
Angle between planes histograms: no
Molecule properties: no
Infra-red spectra: no
Mean-squared displacement using modified order-N algorithm: no
Velocity-autocorrelation function modified order-N algorithm: no
Rotational velocity-autocorrelation function modified order-N algorithm: no
Molecular orientation-autocorrelation function modified order-N algorithm: no
Bond orientation-autocorrelation function modified order-N algorithm: no
Mean-squared displacement (conventional algorithm): no
Velocity-autocorrelation function (conventional algorithm): no
3D density grid for adsorbates: no
Compute cation an/or adsorption sites: no
dcTST snapshots: no
Compute pressure and stress: no


VTK
===========================================================================
VTK fractional-range position framework atoms: [-0.001000,1.001000] [-0.001000,1.001000] [-0.001000,1.001000]
VTK fractional-range position framework bonds: [-0.151000,1.151000] [-0.151000,1.151000] [-0.151000,1.151000]
VTK fractional-range com-position adsorbate molecules: [-0.101000,1.101000] [-0.101000,1.101000] [-0.101000,1.101000]
VTK fractional-range com-position cation molecules: [-0.101000,1.101000] [-0.101000,1.101000] [-0.101000,1.101000]
	3D free energy grid made for the full simulation-cell


Thermo/Baro-stat NHC parameters
===========================================================================
External temperature: 323 [K]
Beta: 0.0037236 [energy unit]
External Pressure: 0 [Pa]


Thermostat chain-length: 3
Timescale parameter for thermostat: 0.150000 [ps]
Barostat chain-length:   3
Timescale parameter for barostat:   0.150000 [ps]

Number of Yoshida-Suzuki decomposition steps: 5
Number of respa steps: 5


Method and settings for electrostatics
===============================================================================
Dielectric constant of the medium : 1.000000
Charge from charge-equilibration: no
Ewald summation is used (exact solution of a periodic system)
Relative precision                : 1e-06
Alpha convergence parameter       : 0.265058
kvec (x,y,z)                      : 8 8 8


CFC-RXMC parameters
===========================================================================
Number of reactions: 0


Rattle parameters
===========================================================================
Distance constraint type: r^2-r^2_0
Bend angle constraint type: theta-theta_0
Dihedral angle constraint type: phi-phi_0
Inversion-bend angle constraint type: chi-chi_0
Out-of-plane distance constraint type: r-r_0


Spectra parameters
===========================================================================
Compute normal modes: no


Minimization parameters
===========================================================================
Generalized coordinates are: Cartesian center-of-mass, elements of the orientational matrix p1,p2,p3 and strain
Potential derivatives are evaluated: analytically
Translation of the system is removed from the generalized Hessian: no
Rotation of the system is removed from the generalized Hessian: no
Maximum step-length: 0.3
Convergence factor: 1
Maximum number of minimization steps: 10000
Use gradients in the line-minimizations: yes
RMS gradient tolerance: 1e-06
Maximum gradient tolerance: 1e-06

Distance constraints: 0
Angle constraints: 0
Dihedral constraints: 0

Improper dihedral constraints: 0

Inversion-bend constraints: 0

Out-of-plane constraints: 0

Harmonic distance constraints: 0
Harmonic angle constraints: 0
Harmonic dihedral constraints: 0

Dihedral mid-point measurements: 0

All framework atoms are fixed

Fixed adsorbate atoms:  
Fixed adsorbate groups (center-of-mass):  
Fixed adsorbate groups (orientation):  

Fixed cation atoms:  
Fixed cation groups (center-of-mass):  
Fixed cation groups (orientation):  


dcTST parameters
===========================================================================
Free energy profiles computed: no
Free energy profiles written every 5000 cycles
Free energy mapping: mapped to a,b,c-coordinates
BarrierPosition:       0.0000000000       0.0000000000       0.0000000000
BarrierNormal:         0.0000000000       0.0000000000       0.0000000000
Start with a molecule on top of the barrier: no
Maximum distance to barrier (e.g. distance to minumum free energy):       0.0000000000 [A]
Maximum trajectory time:      10.0000000000 [ps]
Each configuration is used with 5 different initial velocities


Cbmc parameters
===========================================================================
Biasing method: using only the VDW part
Number of trial positions:                                       10
Number of trial positions (reinsertion):                         10
Number of trial positions (partial reinsertion):                 10
Number of trial positions (identity-change):                     10
Number of trial positions (Gibbs particle transfer):             10
Number of trial positions (insertion/deletion):                  10
Number of trial positions (Widom insertion):                     10
Number of trial positions coupled Torsion-selection:             100
Number of trial positions first bead:                            10
Number of trial positions first bead (reinsertion):              10
Number of trial positions first bead (partial reinsertion):      10
Number of trial positions first bead (identity-change):          10
Number of trial positions first bead (Gibbs particle transfer):  10
Number of trial positions first bead (insertion/deletion):       10
Number of trial positions first bead (Widom insertion):          10
Number of trial moves per open bead:                             150
Target acceptance ratio small-mc scheme:                         0.400000
Energy overlap criteria:                                         1e+07
Minimal Rosenbluth factor:                                       1e-150


Pseudo atoms: 20
===========================================================================
Pseudo Atom[   0] Name UNIT     Oxidation:          Element: H    pdb-name: H    Scat. Types:   1   1 Mass=1.000000000  B-factor:0.000   
                 Charge=1.000000000          Polarization=0.000000000  [A^3] (considered a charged atom and no polarization)  Interactions: yes
                 Anisotropic factor:    0.000 [-] (Absolute), Radius:    1.000 [A], Framework-atom:  no
Pseudo Atom[   1] Name UNIT     Oxidation: +0       Element: H    pdb-name: H    Scat. Types:   1   1 Mass=1.000000000  B-factor:1.000   
                 Charge=1.000000000          Polarization=0.000000000  [A^3] (considered a charged atom and no polarization)  Interactions:  no
                 Anisotropic factor:    0.000 [-] (Relative), Radius:    1.000 [A], Framework-atom:  no
Pseudo Atom[   2] Name He       Oxidation: +0       Element: He   pdb-name: He   Scat. Types:   3   2 Mass=4.002602000  B-factor:1.000   
                 Charge=0.000000000          Polarization=0.000000000  [A^3] (considered a chargeless atom and no polarization)  Interactions:  no
                 Anisotropic factor:    0.000 [-] (Relative), Radius:    1.000 [A], Framework-atom:  no
Pseudo Atom[   3] Name Mof_Oa   Oxidation: +0       Element: O    pdb-name: O    Scat. Types:   9   8 Mass=15.999400000 B-factor:1.000   
                 Charge=-0.899000000         Polarization=0.000000000  [A^3] (considered a charged atom and no polarization)  Interactions: yes
                 Anisotropic factor:    0.000 [-] (Relative), Radius:    1.000 [A], Framework-atom: yes (charge from pseudo-atoms file)
Pseudo Atom[   4] Name Mof_Ob   Oxidation: +0       Element: O    pdb-name: O    Scat. Types:   9   8 Mass=15.999400000 B-factor:1.000   
                 Charge=-0.752000000         Polarization=0.000000000  [A^3] (considered a charged atom and no polarization)  Interactions: yes
                 Anisotropic factor:    0.000 [-] (Relative), Radius:    1.000 [A], Framework-atom: yes (charge from pseudo-atoms file)
Pseudo Atom[   5] Name Mof_Oc   Oxidation: +0       Element: O    pdb-name: O    Scat. Types:   9   8 Mass=15.999400000 B-factor:1.000   
                 Charge=-0.903000000         Polarization=0.000000000  [A^3] (considered a charged atom and no polarization)  Interactions: yes
                 Anisotropic factor:    0.000 [-] (Relative), Radius:    1.000 [A], Framework-atom: yes (charge from pseudo-atoms file)
Pseudo Atom[   6] Name Mof_Ca   Oxidation: +0       Element: C    pdb-name: C    Scat. Types:   7   6 Mass=12.000000000 B-factor:1.000   
                 Charge=0.900000000          Polarization=0.000000000  [A^3] (considered a charged atom and no polarization)  Interactions: yes
                 Anisotropic factor:    0.000 [-] (Relative), Radius:    1.448 [A], Framework-atom: yes (charge from pseudo-atoms file)
Pseudo Atom[   7] Name Mof_Cb   Oxidation: +0       Element: C    pdb-name: C    Scat. Types:   7   6 Mass=12.000000000 B-factor:1.000   
                 Charge=-0.314000000         Polarization=0.000000000  [A^3] (considered a charged atom and no polarization)  Interactions: yes
                 Anisotropic factor:    0.000 [-] (Relative), Radius:    1.448 [A], Framework-atom: yes (charge from pseudo-atoms file)
Pseudo Atom[   8] Name Mof_Cc   Oxidation: +0       Element: C    pdb-name: C    Scat. Types:   7   6 Mass=12.000000000 B-factor:1.000   
                 Charge=0.456000000          Polarization=0.000000000  [A^3] (considered a charged atom and no polarization)  Interactions: yes
                 Anisotropic factor:    0.000 [-] (Relative), Radius:    1.448 [A], Framework-atom: yes (charge from pseudo-atoms file)
Pseudo Atom[   9] Name Mof_Cd   Oxidation: +0       Element: C    pdb-name: C    Scat. Types:   7   6 Mass=12.000000000 B-factor:1.000   
                 Charge=-0.234000000         Polarization=0.000000000  [A^3] (considered a charged atom and no polarization)  Interactions: yes
                 Anisotropic factor:    0.000 [-] (Relative), Radius:    1.448 [A], Framework-atom: yes (charge from pseudo-atoms file)
Pseudo Atom[  10] Name Mof_H    Oxidation: +0       Element: H    pdb-name: H    Scat. Types:   1   1 Mass=1.000000000  B-factor:1.000   
                 Charge=0.186000000          Polarization=0.000000000  [A^3] (considered a charged atom and no polarization)  Interactions: yes
                 Anisotropic factor:    0.000 [-] (Relative), Radius:    1.000 [A], Framework-atom: yes (charge from pseudo-atoms file)
Pseudo Atom[  11] Name Mof_Mg   Oxidation: +0       Element: Mg   pdb-name: Mg   Scat. Types:  13  12 Mass=24.305000000 B-factor:1.000   
                 Charge=1.560000000          Polarization=0.000000000  [A^3] (considered a charged atom and no polarization)  Interactions: yes
                 Anisotropic factor:    0.000 [-] (Relative), Radius:    1.000 [A], Framework-atom: yes (charge from pseudo-atoms file)
Pseudo Atom[  12] Name Ow       Oxidation: +0       Element: O    pdb-name: O    Scat. Types:   9   8 Mass=15.999400000 B-factor:1.000   
                 Charge=0.000000000          Polarization=0.000000000  [A^3] (considered a chargeless atom and no polarization)  Interactions: yes
                 Anisotropic factor:    0.000 [-] (Relative), Radius:    0.500 [A], Framework-atom:  no
Pseudo Atom[  13] Name Hw       Oxidation: +0       Element: H    pdb-name: H    Scat. Types:   1   1 Mass=1.008000000  B-factor:1.000   
                 Charge=0.524220000          Polarization=0.000000000  [A^3] (considered a charged atom and no polarization)  Interactions: yes
                 Anisotropic factor:    0.000 [-] (Relative), Radius:    1.000 [A], Framework-atom:  no
Pseudo Atom[  14] Name M        Oxidation: +0       Element: -    pdb-name: M    Scat. Types:   0  12 Mass=0.000000000  B-factor:1.000   
                 Charge=-1.048440000         Polarization=0.000000000  [A^3] (considered a charged atom and no polarization)  Interactions:  no
                 Anisotropic factor:    0.000 [-] (Relative), Radius:    1.000 [A], Framework-atom:  no
Pseudo Atom[  15] Name C_co2    Oxidation: +0       Element: C    pdb-name: C    Scat. Types:   7   6 Mass=12.010700000 B-factor:1.000   
                 Charge=0.651200000          Polarization=0.000000000  [A^3] (considered a charged atom and no polarization)  Interactions: yes
                 Anisotropic factor:    0.000 [-] (Relative), Radius:    1.000 [A], Framework-atom:  no
Pseudo Atom[  16] Name O_co2    Oxidation: +0       Element: O    pdb-name: O    Scat. Types:   9   8 Mass=15.999400000 B-factor:1.000   
                 Charge=-0.325600000         Polarization=0.000000000  [A^3] (considered a charged atom and no polarization)  Interactions: yes
                 Anisotropic factor:    0.000 [-] (Relative), Radius:    1.000 [A], Framework-atom:  no
Pseudo Atom[  17] Name CH4_sp3  Oxidation: +0       Element: C    pdb-name: C    Scat. Types:   7   6 Mass=16.042460000 B-factor:1.000   
                 Charge=0.000000000          Polarization=0.000000000  [A^3] (considered a chargeless atom and no polarization)  Interactions: yes
                 Anisotropic factor:    0.000 [-] (Relative), Radius:    1.000 [A], Framework-atom:  no
Pseudo Atom[  18] Name N_n2     Oxidation: +0       Element: N    pdb-name: N    Scat. Types:   8   7 Mass=14.006740000 B-factor:1.000   
                 Charge=-0.482000000         Polarization=0.000000000  [A^3] (considered a charged atom and no polarization)  Interactions: yes
                 Anisotropic factor:    0.000 [-] (Relative), Radius:    0.700 [A], Framework-atom:  no
Pseudo Atom[  19] Name N_com    Oxidation: +0       Element: N    pdb-name: N    Scat. Types:   8   7 Mass=0.000000000  B-factor:1.000   
                 Charge=0.964000000          Polarization=0.000000000  [A^3] (considered a charged atom and no polarization)  Interactions:  no
                 Anisotropic factor:    0.000 [-] (Relative), Radius:    0.700 [A], Framework-atom:  no


Forcefield: LinMercado
===========================================================================
Minimal distance: 1
CutOff VDW : 12.800000 (163.840000)
CutOff VDW switching on: 11.520000 (132.710400)
CutOff charge-charge : 12.000000 (144.000000)
CutOff charge-charge switching on: 7.800000 (60.840000)
CutOff charge-bonddipole : 12.000000 (144.000000)
CutOff charge-bondipole switching on: 8.400000 (70.560000)
CutOff bonddipole-bonddipole : 12.000000 (144.000000)
CutOff bonddipole-bondipole switching on: 9.000000 (81.000000)
Polarization is neglected
All potentials are shifted to zero at the Cutoff

General mixing rule: Lorentz-Berthelot mixing rules are used FIRST for cross terms
0 cross terms are overwritten using the individual mixing rules from the file 'force_field_mixing_rules.def'
and then 43 terms are overwritten using the specific interactions from the file 'force_field.def'

The force field and all the interactions:
 Mof_Oa -  Mof_Oa [LENNARD_JONES] p_0/k_B:  30.22670 [K], p_1: 3.11815 [A], shift/k_B:  -0.02526260 [K], tailcorrection: no
 Mof_Oa -  Mof_Ob [LENNARD_JONES] p_0/k_B:  30.22670 [K], p_1: 3.11815 [A], shift/k_B:  -0.02526260 [K], tailcorrection: no
 Mof_Oa -  Mof_Oc [LENNARD_JONES] p_0/k_B:  30.22670 [K], p_1: 3.11815 [A], shift/k_B:  -0.02526260 [K], tailcorrection: no
 Mof_Oa -  Mof_Ca [LENNARD_JONES] p_0/k_B:  39.97735 [K], p_1: 3.27450 [A], shift/k_B:  -0.04480854 [K], tailcorrection: no
 Mof_Oa -  Mof_Cb [LENNARD_JONES] p_0/k_B:  39.97735 [K], p_1: 3.27450 [A], shift/k_B:  -0.04480854 [K], tailcorrection: no
 Mof_Oa -  Mof_Cc [LENNARD_JONES] p_0/k_B:  39.97735 [K], p_1: 3.27450 [A], shift/k_B:  -0.04480854 [K], tailcorrection: no
 Mof_Oa -  Mof_Cd [LENNARD_JONES] p_0/k_B:  39.97735 [K], p_1: 3.27450 [A], shift/k_B:  -0.04480854 [K], tailcorrection: no
 Mof_Oa -   Mof_H [LENNARD_JONES] p_0/k_B:  25.88457 [K], p_1: 2.84464 [A], shift/k_B:  -0.01247246 [K], tailcorrection: no
 Mof_Oa -  Mof_Mg [LENNARD_JONES] p_0/k_B:  41.11261 [K], p_1: 2.90457 [A], shift/k_B:  -0.02244963 [K], tailcorrection: no
 Mof_Oa -      Ow [LENNARD_JONES] p_0/k_B:  49.75507 [K], p_1: 3.14122 [A], shift/k_B:  -0.04346451 [K], tailcorrection: no
 Mof_Oa -      Hw [BUCKINGHAM2] p_0/k_B: 4034918.84900 [K], p_1:  3.97667 [A^-1], p_2/k_B: 54875.47333 [K A^6], p_3:  1.00000 [A], shift/k_B: -0.01248 [K]
 Mof_Oa -   C_co2 [LENNARD_JONES] p_0/k_B:  69.95800 [K], p_1: 2.79400 [A], shift/k_B:  -0.03026558 [K], tailcorrection: no
 Mof_Oa -   O_co2 [BUCKINGHAM2] p_0/k_B: 33788254.66900 [K], p_1:  3.80500 [A^-1], p_2/k_B: 143132.06634 [K A^6], p_3:  1.00000 [A], shift/k_B: -0.03254 [K]
 Mof_Oa - CH4_sp3 [BUCKINGHAM2] p_0/k_B: 18427418.16468 [K], p_1:  0.96500 [A^-1], p_2/k_B: 474764.83678 [K A^6], p_3:  1.00000 [A], shift/k_B: 79.51881 [K]
 Mof_Oa -    N_n2 [LENNARD_JONES] p_0/k_B:  32.98729 [K], p_1: 3.21407 [A], shift/k_B:  -0.03306526 [K], tailcorrection: no
 Mof_Ob -  Mof_Ob [LENNARD_JONES] p_0/k_B:  30.22670 [K], p_1: 3.11815 [A], shift/k_B:  -0.02526260 [K], tailcorrection: no
 Mof_Ob -  Mof_Oc [LENNARD_JONES] p_0/k_B:  30.22670 [K], p_1: 3.11815 [A], shift/k_B:  -0.02526260 [K], tailcorrection: no
 Mof_Ob -  Mof_Ca [LENNARD_JONES] p_0/k_B:  39.97735 [K], p_1: 3.27450 [A], shift/k_B:  -0.04480854 [K], tailcorrection: no
 Mof_Ob -  Mof_Cb [LENNARD_JONES] p_0/k_B:  39.97735 [K], p_1: 3.27450 [A], shift/k_B:  -0.04480854 [K], tailcorrection: no
 Mof_Ob -  Mof_Cc [LENNARD_JONES] p_0/k_B:  39.97735 [K], p_1: 3.27450 [A], shift/k_B:  -0.04480854 [K], tailcorrection: no
 Mof_Ob -  Mof_Cd [LENNARD_JONES] p_0/k_B:  39.97735 [K], p_1: 3.27450 [A], shift/k_B:  -0.04480854 [K], tailcorrection: no
 Mof_Ob -   Mof_H [LENNARD_JONES] p_0/k_B:  25.88457 [K], p_1: 2.84464 [A], shift/k_B:  -0.01247246 [K], tailcorrection: no
 Mof_Ob -  Mof_Mg [LENNARD_JONES] p_0/k_B:  41.11261 [K], p_1: 2.90457 [A], shift/k_B:  -0.02244963 [K], tailcorrection: no
 Mof_Ob -      Ow [BUCKINGHAM2] p_0/k_B: 34921925.40000 [K], p_1:  3.87333 [A^-1], p_2/k_B: 191256.40000 [K A^6], p_3:  1.00000 [A], shift/k_B: -0.04349 [K]
 Mof_Ob -      Hw [BUCKINGHAM2] p_0/k_B: 4034918.84900 [K], p_1:  3.97667 [A^-1], p_2/k_B: 54875.47333 [K A^6], p_3:  1.00000 [A], shift/k_B: -0.01248 [K]
 Mof_Ob -   C_co2 [LENNARD_JONES] p_0/k_B:  69.95800 [K], p_1: 2.79400 [A], shift/k_B:  -0.03026558 [K], tailcorrection: no
 Mof_Ob -   O_co2 [BUCKINGHAM2] p_0/k_B: 26778651.72200 [K], p_1:  3.78000 [A^-1], p_2/k_B: 143132.06634 [K A^6], p_3:  1.00000 [A], shift/k_B: -0.03254 [K]
 Mof_Ob - CH4_sp3 [BUCKINGHAM2] p_0/k_B: 20298567.65911 [K], p_1:  0.26500 [A^-1], p_2/k_B: 474764.83678 [K A^6], p_3:  1.00000 [A], shift/k_B: 682870.64264 [K]
 Mof_Ob -    N_n2 [LENNARD_JONES] p_0/k_B:  32.98729 [K], p_1: 3.21407 [A], shift/k_B:  -0.03306526 [K], tailcorrection: no
 Mof_Oc -  Mof_Oc [LENNARD_JONES] p_0/k_B:  30.22670 [K], p_1: 3.11815 [A], shift/k_B:  -0.02526260 [K], tailcorrection: no
 Mof_Oc -  Mof_Ca [LENNARD_JONES] p_0/k_B:  39.97735 [K], p_1: 3.27450 [A], shift/k_B:  -0.04480854 [K], tailcorrection: no
 Mof_Oc -  Mof_Cb [LENNARD_JONES] p_0/k_B:  39.97735 [K], p_1: 3.27450 [A], shift/k_B:  -0.04480854 [K], tailcorrection: no
 Mof_Oc -  Mof_Cc [LENNARD_JONES] p_0/k_B:  39.97735 [K], p_1: 3.27450 [A], shift/k_B:  -0.04480854 [K], tailcorrection: no
 Mof_Oc -  Mof_Cd [LENNARD_JONES] p_0/k_B:  39.97735 [K], p_1: 3.27450 [A], shift/k_B:  -0.04480854 [K], tailcorrection: no
 Mof_Oc -   Mof_H [LENNARD_JONES] p_0/k_B:  25.88457 [K], p_1: 2.84464 [A], shift/k_B:  -0.01247246 [K], tailcorrection: no
 Mof_Oc -  Mof_Mg [LENNARD_JONES] p_0/k_B:  41.11261 [K], p_1: 2.90457 [A], shift/k_B:  -0.02244963 [K], tailcorrection: no
 Mof_Oc -      Ow [BUCKINGHAM2] p_0/k_B: 15966286.36000 [K], p_1:  3.39000 [A^-1], p_2/k_B: 191256.40000 [K A^6], p_3:  1.00000 [A], shift/k_B: -0.04349 [K]
 Mof_Oc -      Hw [BUCKINGHAM2] p_0/k_B: 4034918.84900 [K], p_1:  3.97667 [A^-1], p_2/k_B: 54875.47333 [K A^6], p_3:  1.00000 [A], shift/k_B: -0.01248 [K]
 Mof_Oc -   C_co2 [LENNARD_JONES] p_0/k_B:  69.95800 [K], p_1: 2.79400 [A], shift/k_B:  -0.03026558 [K], tailcorrection: no
 Mof_Oc -   O_co2 [BUCKINGHAM2] p_0/k_B: 26343241.68000 [K], p_1:  3.70500 [A^-1], p_2/k_B: 143132.06634 [K A^6], p_3:  1.00000 [A], shift/k_B: -0.03254 [K]
 Mof_Oc - CH4_sp3 [BUCKINGHAM2] p_0/k_B: 10069809.82557 [K], p_1:  0.79000 [A^-1], p_2/k_B: 474764.83678 [K A^6], p_3:  1.00000 [A], shift/k_B: 408.62107 [K]
 Mof_Oc -    N_n2 [LENNARD_JONES] p_0/k_B:  32.98729 [K], p_1: 3.21407 [A], shift/k_B:  -0.03306526 [K], tailcorrection: no
 Mof_Ca -  Mof_Ca [LENNARD_JONES] p_0/k_B:  52.87340 [K], p_1: 3.43085 [A], shift/k_B:  -0.07839484 [K], tailcorrection: no
 Mof_Ca -  Mof_Cb [LENNARD_JONES] p_0/k_B:  52.87340 [K], p_1: 3.43085 [A], shift/k_B:  -0.07839484 [K], tailcorrection: no
 Mof_Ca -  Mof_Cc [LENNARD_JONES] p_0/k_B:  52.87340 [K], p_1: 3.43085 [A], shift/k_B:  -0.07839484 [K], tailcorrection: no
 Mof_Ca -  Mof_Cd [LENNARD_JONES] p_0/k_B:  52.87340 [K], p_1: 3.43085 [A], shift/k_B:  -0.07839484 [K], tailcorrection: no
 Mof_Ca -   Mof_H [LENNARD_JONES] p_0/k_B:  34.23452 [K], p_1: 3.00099 [A], shift/k_B:  -0.02273954 [K], tailcorrection: no
 Mof_Ca -  Mof_Mg [LENNARD_JONES] p_0/k_B:  54.37488 [K], p_1: 3.06093 [A], shift/k_B:  -0.04066622 [K], tailcorrection: no
 Mof_Ca -      Ow [BUCKINGHAM2] p_0/k_B: 25084475.36000 [K], p_1:  3.73500 [A^-1], p_2/k_B: 338292.73330 [K A^6], p_3:  1.00000 [A], shift/k_B: -0.07692 [K]
 Mof_Ca -      Hw [BUCKINGHAM2] p_0/k_B: 3030276.89000 [K], p_1:  3.51917 [A^-1], p_2/k_B: 99968.81667 [K A^6], p_3:  1.00000 [A], shift/k_B: -0.02273 [K]
 Mof_Ca -   C_co2 [LENNARD_JONES] p_0/k_B:  87.73800 [K], p_1: 2.90400 [A], shift/k_B:  -0.04785291 [K], tailcorrection: no
 Mof_Ca -   O_co2 [BUCKINGHAM2] p_0/k_B: 27650011.56000 [K], p_1:  3.84000 [A^-1], p_2/k_B: 226311.66802 [K A^6], p_3:  1.00000 [A], shift/k_B: -0.05146 [K]
 Mof_Ca - CH4_sp3 [BUCKINGHAM2] p_0/k_B: 76229282.72379 [K], p_1:  0.99500 [A^-1], p_2/k_B: 819149.36423 [K A^6], p_3:  1.00000 [A], shift/k_B: 224.17472 [K]
 Mof_Ca -    N_n2 [LENNARD_JONES] p_0/k_B:  43.62846 [K], p_1: 3.37043 [A], shift/k_B:  -0.05814785 [K], tailcorrection: no
 Mof_Cb -  Mof_Cb [LENNARD_JONES] p_0/k_B:  52.87340 [K], p_1: 3.43085 [A], shift/k_B:  -0.07839484 [K], tailcorrection: no
 Mof_Cb -  Mof_Cc [LENNARD_JONES] p_0/k_B:  52.87340 [K], p_1: 3.43085 [A], shift/k_B:  -0.07839484 [K], tailcorrection: no
 Mof_Cb -  Mof_Cd [LENNARD_JONES] p_0/k_B:  52.87340 [K], p_1: 3.43085 [A], shift/k_B:  -0.07839484 [K], tailcorrection: no
 Mof_Cb -   Mof_H [LENNARD_JONES] p_0/k_B:  34.23452 [K], p_1: 3.00099 [A], shift/k_B:  -0.02273954 [K], tailcorrection: no
 Mof_Cb -  Mof_Mg [LENNARD_JONES] p_0/k_B:  54.37488 [K], p_1: 3.06093 [A], shift/k_B:  -0.04066622 [K], tailcorrection: no
 Mof_Cb -      Ow [BUCKINGHAM2] p_0/k_B: 18153185.98000 [K], p_1:  3.35167 [A^-1], p_2/k_B: 338292.73330 [K A^6], p_3:  1.00000 [A], shift/k_B: -0.07692 [K]
 Mof_Cb -      Hw [BUCKINGHAM2] p_0/k_B: 3030276.89000 [K], p_1:  3.51917 [A^-1], p_2/k_B: 99968.81667 [K A^6], p_3:  1.00000 [A], shift/k_B: -0.02273 [K]
 Mof_Cb -   C_co2 [LENNARD_JONES] p_0/k_B:  87.73800 [K], p_1: 2.90400 [A], shift/k_B:  -0.04785291 [K], tailcorrection: no
 Mof_Cb -   O_co2 [BUCKINGHAM2] p_0/k_B: 21483617.38800 [K], p_1:  3.51500 [A^-1], p_2/k_B: 226311.66802 [K A^6], p_3:  1.00000 [A], shift/k_B: -0.05146 [K]
 Mof_Cb - CH4_sp3 [BUCKINGHAM2] p_0/k_B: 35513432.47874 [K], p_1:  0.28000 [A^-1], p_2/k_B: 819149.36423 [K A^6], p_3:  1.00000 [A], shift/k_B: 986009.60377 [K]
 Mof_Cb -    N_n2 [LENNARD_JONES] p_0/k_B:  43.62846 [K], p_1: 3.37043 [A], shift/k_B:  -0.05814785 [K], tailcorrection: no
 Mof_Cc -  Mof_Cc [LENNARD_JONES] p_0/k_B:  52.87340 [K], p_1: 3.43085 [A], shift/k_B:  -0.07839484 [K], tailcorrection: no
 Mof_Cc -  Mof_Cd [LENNARD_JONES] p_0/k_B:  52.87340 [K], p_1: 3.43085 [A], shift/k_B:  -0.07839484 [K], tailcorrection: no
 Mof_Cc -   Mof_H [LENNARD_JONES] p_0/k_B:  34.23452 [K], p_1: 3.00099 [A], shift/k_B:  -0.02273954 [K], tailcorrection: no
 Mof_Cc -  Mof_Mg [LENNARD_JONES] p_0/k_B:  54.37488 [K], p_1: 3.06093 [A], shift/k_B:  -0.04066622 [K], tailcorrection: no
 Mof_Cc -      Ow [BUCKINGHAM2] p_0/k_B: 119651310.90000 [K], p_1:  4.38500 [A^-1], p_2/k_B: 338292.73330 [K A^6], p_3:  1.00000 [A], shift/k_B: -0.07692 [K]
 Mof_Cc -      Hw [BUCKINGHAM2] p_0/k_B: 3030276.89000 [K], p_1:  3.51917 [A^-1], p_2/k_B: 99968.81667 [K A^6], p_3:  1.00000 [A], shift/k_B: -0.02273 [K]
 Mof_Cc -   C_co2 [LENNARD_JONES] p_0/k_B:  87.73800 [K], p_1: 2.90400 [A], shift/k_B:  -0.04785291 [K], tailcorrection: no
 Mof_Cc -   O_co2 [BUCKINGHAM2] p_0/k_B: 29921687.89000 [K], p_1:  3.84000 [A^-1], p_2/k_B: 226311.66802 [K A^6], p_3:  1.00000 [A], shift/k_B: -0.05146 [K]
 Mof_Cc - CH4_sp3 [BUCKINGHAM2] p_0/k_B: 231595395.49758 [K], p_1:  0.37000 [A^-1], p_2/k_B: 819149.36423 [K A^6], p_3:  1.00000 [A], shift/k_B: 2031941.56631 [K]
 Mof_Cc -    N_n2 [LENNARD_JONES] p_0/k_B:  43.62846 [K], p_1: 3.37043 [A], shift/k_B:  -0.05814785 [K], tailcorrection: no
 Mof_Cd -  Mof_Cd [LENNARD_JONES] p_0/k_B:  52.87340 [K], p_1: 3.43085 [A], shift/k_B:  -0.07839484 [K], tailcorrection: no
 Mof_Cd -   Mof_H [LENNARD_JONES] p_0/k_B:  34.23452 [K], p_1: 3.00099 [A], shift/k_B:  -0.02273954 [K], tailcorrection: no
 Mof_Cd -  Mof_Mg [LENNARD_JONES] p_0/k_B:  54.37488 [K], p_1: 3.06093 [A], shift/k_B:  -0.04066622 [K], tailcorrection: no
 Mof_Cd -      Ow [BUCKINGHAM2] p_0/k_B: 5841036.93700 [K], p_1:  3.03500 [A^-1], p_2/k_B: 338292.73330 [K A^6], p_3:  1.00000 [A], shift/k_B: -0.07692 [K]
 Mof_Cd -      Hw [BUCKINGHAM2] p_0/k_B: 3030276.89000 [K], p_1:  3.51917 [A^-1], p_2/k_B: 99968.81667 [K A^6], p_3:  1.00000 [A], shift/k_B: -0.02273 [K]
 Mof_Cd -   C_co2 [LENNARD_JONES] p_0/k_B:  87.73800 [K], p_1: 2.90400 [A], shift/k_B:  -0.04785291 [K], tailcorrection: no
 Mof_Cd -   O_co2 [BUCKINGHAM2] p_0/k_B: 13146939.52000 [K], p_1:  3.31500 [A^-1], p_2/k_B: 226311.66802 [K A^6], p_3:  1.00000 [A], shift/k_B: -0.05146 [K]
 Mof_Cd - CH4_sp3 [BUCKINGHAM2] p_0/k_B: 2559350.25651 [K], p_1:  0.31500 [A^-1], p_2/k_B: 819149.36423 [K A^6], p_3:  1.00000 [A], shift/k_B: 45399.65912 [K]
 Mof_Cd -    N_n2 [LENNARD_JONES] p_0/k_B:  43.62846 [K], p_1: 3.37043 [A], shift/k_B:  -0.05814785 [K], tailcorrection: no
  Mof_H -   Mof_H [LENNARD_JONES] p_0/k_B:  22.16620 [K], p_1: 2.57113 [A], shift/k_B:  -0.00582386 [K], tailcorrection: no
  Mof_H -  Mof_Mg [LENNARD_JONES] p_0/k_B:  35.20670 [K], p_1: 2.63107 [A], shift/k_B:  -0.01062146 [K], tailcorrection: no
  Mof_H -      Ow [LENNARD_JONES] p_0/k_B:  42.60765 [K], p_1: 2.86772 [A], shift/k_B:  -0.02155016 [K], tailcorrection: no
  Mof_H -      Hw [LENNARD_JONES] p_0/k_B:  22.16620 [K], p_1: 2.57113 [A], shift/k_B:  -0.00582386 [K], tailcorrection: no
  Mof_H -   C_co2 [LENNARD_JONES] p_0/k_B:  68.31700 [K], p_1: 2.45300 [A], shift/k_B:  -0.01353607 [K], tailcorrection: no
  Mof_H -   O_co2 [LENNARD_JONES] p_0/k_B:  56.90000 [K], p_1: 2.34300 [A], shift/k_B:  -0.00856111 [K], tailcorrection: no
  Mof_H - CH4_sp3 [LENNARD_JONES] p_0/k_B:  57.24264 [K], p_1: 3.15000 [A], shift/k_B:  -0.05084950 [K], tailcorrection: no
  Mof_H -    N_n2 [LENNARD_JONES] p_0/k_B:  28.24860 [K], p_1: 2.94057 [A], shift/k_B:  -0.01660809 [K], tailcorrection: no
 Mof_Mg -  Mof_Mg [LENNARD_JONES] p_0/k_B:  55.91900 [K], p_1: 2.69100 [A], shift/k_B:  -0.01931098 [K], tailcorrection: no
 Mof_Mg -      Ow [BUCKINGHAM2] p_0/k_B: 21931100.00000 [K], p_1:  3.94500 [A^-1], p_2/k_B: 170117.00000 [K A^6], p_3:  1.00000 [A], shift/k_B: -0.03868 [K]
 Mof_Mg -      Hw [LENNARD_JONES] p_0/k_B:  35.20670 [K], p_1: 2.63107 [A], shift/k_B:  -0.01062146 [K], tailcorrection: no
 Mof_Mg -   C_co2 [LENNARD_JONES] p_0/k_B: 190.62120 [K], p_1: 2.81600 [A], shift/k_B:  -0.08644065 [K], tailcorrection: no
 Mof_Mg -   O_co2 [BUCKINGHAM2] p_0/k_B: 24732000.00000 [K], p_1:  3.96500 [A^-1], p_2/k_B: 408795.00000 [K A^6], p_3:  1.00000 [A], shift/k_B: -0.09295 [K]
 Mof_Mg - CH4_sp3 [BUCKINGHAM2] p_0/k_B: 253493890.94960 [K], p_1:  0.91500 [A^-1], p_2/k_B: 437687.55100 [K A^6], p_3:  1.00000 [A], shift/k_B: 2077.25455 [K]
 Mof_Mg -    N_n2 [LENNARD_JONES] p_0/k_B:  44.86740 [K], p_1: 3.00050 [A], shift/k_B:  -0.02977288 [K], tailcorrection: no
     Ow -      Ow [LENNARD_JONES] p_0/k_B:  81.90000 [K], p_1: 3.16430 [A], shift/k_B:   0.00000000 [K], tailcorrection: yes
     Ow -      Hw [BUCKINGHAM2] p_0/k_B:  0.00000 [K], p_1:  0.00000 [A^-1], p_2/k_B:  0.00000 [K A^6], p_3:  1.00000 [A], shift/k_B:  0.00000 [K]
     Ow -   C_co2 [LENNARD_JONES] p_0/k_B:  47.99755 [K], p_1: 2.96065 [A], shift/k_B:  -0.02939512 [K], tailcorrection: no
     Ow -   O_co2 [LENNARD_JONES] p_0/k_B:  81.20051 [K], p_1: 3.09865 [A], shift/k_B:  -0.06535919 [K], tailcorrection: no
     Ow - CH4_sp3 [LENNARD_JONES] p_0/k_B: 110.09632 [K], p_1: 3.44715 [A], shift/k_B:  -0.16794549 [K], tailcorrection: no
     Ow -    N_n2 [LENNARD_JONES] p_0/k_B:  54.29917 [K], p_1: 3.23715 [A], shift/k_B:  -0.05681417 [K], tailcorrection: no
     Hw -      Hw [BUCKINGHAM2] p_0/k_B:  0.00000 [K], p_1:  0.00000 [A^-1], p_2/k_B:  0.00000 [K A^6], p_3:  1.00000 [A], shift/k_B:  0.00000 [K]
     Hw -   C_co2 [LENNARD_JONES] p_0/k_B:  24.97024 [K], p_1: 2.66407 [A], shift/k_B:  -0.00811818 [K], tailcorrection: no
     Hw -   O_co2 [LENNARD_JONES] p_0/k_B:  42.24375 [K], p_1: 2.80207 [A], shift/k_B:  -0.01859456 [K], tailcorrection: no
     Hw - CH4_sp3 [LENNARD_JONES] p_0/k_B:  57.27650 [K], p_1: 3.15057 [A], shift/k_B:  -0.05093454 [K], tailcorrection: no
     Hw -    N_n2 [LENNARD_JONES] p_0/k_B:  28.24860 [K], p_1: 2.94057 [A], shift/k_B:  -0.01660809 [K], tailcorrection: no
  C_co2 -   C_co2 [LENNARD_JONES] p_0/k_B:  28.12900 [K], p_1: 2.75700 [A], shift/k_B:  -0.01123393 [K], tailcorrection: no
  C_co2 -   O_co2 [LENNARD_JONES] p_0/k_B:  47.58762 [K], p_1: 2.89500 [A], shift/k_B:  -0.02547578 [K], tailcorrection: no
  C_co2 - CH4_sp3 [LENNARD_JONES] p_0/k_B:  64.52203 [K], p_1: 3.24350 [A], shift/k_B:  -0.06830879 [K], tailcorrection: no
  C_co2 -    N_n2 [LENNARD_JONES] p_0/k_B:  31.82207 [K], p_1: 3.03350 [A], shift/k_B:  -0.02254839 [K], tailcorrection: no
  O_co2 -   O_co2 [LENNARD_JONES] p_0/k_B:  80.50700 [K], p_1: 3.03300 [A], shift/k_B:  -0.05698905 [K], tailcorrection: no
  O_co2 - CH4_sp3 [LENNARD_JONES] p_0/k_B: 109.15602 [K], p_1: 3.38150 [A], shift/k_B:  -0.14837357 [K], tailcorrection: no
  O_co2 -    N_n2 [LENNARD_JONES] p_0/k_B:  53.83542 [K], p_1: 3.17150 [A], shift/k_B:  -0.04981453 [K], tailcorrection: no
CH4_sp3 - CH4_sp3 [LENNARD_JONES] p_0/k_B: 148.00000 [K], p_1: 3.73000 [A], shift/k_B:  -0.36228376 [K], tailcorrection: no
CH4_sp3 -    N_n2 [LENNARD_JONES] p_0/k_B:  72.99315 [K], p_1: 3.52000 [A], shift/k_B:  -0.12622645 [K], tailcorrection: no
   N_n2 -    N_n2 [LENNARD_JONES] p_0/k_B:  36.00000 [K], p_1: 3.31000 [A], shift/k_B:   0.00000000 [K], tailcorrection: yes


MoleculeDefinitions:
===========================================================================
Component 0 [CO2] (Adsorbate molecule)

	MoleculeDefinitions: ExampleDefinitions
	Component contains (at least some) atoms which are charged
	Component contains no atoms with point dipoles (polarization)
	Component has a net charge of 0.000000

	Ideal chain Rosenbluth weight: 1
	Ideal chain total energy: 0.000000

	Critical temparure [K]: 304.128200
	Critical pressure [Pa]: 7377300.000000
	Acentric factor [-]: 0.223940

	RXMC partition factor ln(q/V) [ln(A^(-3))]:       0.0000000000

	Vapour=stable, Liquid=metastable

	MolFraction:           1.0000000000 [-]
	Compressibility:       0.0000000000 [-]

	Density of the bulk fluid phase:       0.0000000000 [kg/m^3]


	Amount of excess molecules:       0.0000000000 [-]

	Conversion factor molecules/unit cell -> mol/kg:       1.3739676007 [-]
	Conversion factor molecules/unit cell -> mg/g:      60.4676271250 [-]
	Conversion factor molecules/unit cell -> cm^3 STP/gr:      30.7960764811 [-]
	Conversion factor molecules/unit cell -> cm^3 STP/cm^3:      28.1626016967 [-]
	Conversion factor mol/kg -> cm^3 STP/gr:      22.4139757476 [-]
	Conversion factor mol/kg -> cm^3 STP/cm^3:      20.4972822368 [-]

	Partial pressure: -16605402.00000000000000 [Pa]
	                    -124540.51499999999942 [Torr]
	                       -166.05402000000001 [bar]
	                       -163.88257586972614 [atm]

	Fugacity coefficient:      -1.0000000000 [-]

	Partial fugacity:  16605402.00000000000000 [Pa]
	                     124540.51499999999942 [Torr]
	                        166.05402000000001 [bar]
	                        163.88257586972614 [atm]

	Molecule contains 3 number of atoms
		atom:    0  is of type:   16 [     O_co2] (group: 0)
		atom:    1  is of type:   15 [     C_co2] (group: 0)
		atom:    2  is of type:   16 [     O_co2] (group: 0)

	Molecule contains 0 chirality centers

	Molecule contains 1 number of groups

		group: 0 containing: 3 elements
		-------------------------------------------------
		the group is rigid and linear
		Mass: 44.009500 [a.u.]
		Mass: 3.456054 [kg/m^3]

		Rotational Degrees of freedom: 2
		Diagonalized inertia vector:      42.2448477588
		                                  42.2448477588
		                                   0.0000000000
		number of atoms: 3
			element: 0 atom: 0 [     O_co2] Charge: -0.325600 Anisotropy: 0.000000 Position:  0.000000 -0.000000  1.149000 Connectivity: 1 (1 )
			element: 1 atom: 1 [     C_co2] Charge:  0.651200 Anisotropy: 0.000000 Position:  0.000000 -0.000000  0.000000 Connectivity: 2 (0 2 )
			element: 2 atom: 2 [     O_co2] Charge: -0.325600 Anisotropy: 0.000000 Position:  0.000000 -0.000000 -1.149000 Connectivity: 1 (1 )
		number of permanent dipoles: 0
		number of polarizabilities: 0

		Dipole:           0.0000000000 [D]
		Quadrupole:       2.0646942053       2.0646942053      -4.1293884107 [D Angstrom]
		Quadrupole tensor [D Angstrom]
				       2.0646942053       0.0000000000       0.0000000000
				       0.0000000000       2.0646942053       0.0000000000
				       0.0000000000       0.0000000000      -4.1293884107

	Starting bead for growth               : 0

	Degrees of freedom                     : 0
	Translational degrees of freedom       : 0
	Rotational degrees of freedom          : 0
	Vibrational degrees of freedom         : 0
	Constraint degrees of freedom          : 0

	Number of atoms                        : 3

	Number of constraint bonds             : 0
	Number of constraint bends             : 0
	Number of constraint inversion bends   : 0
	Number of constraint torsions          : 0
	Number of constraint improper torsions : 0
	Number of constraint improper torsions : 0

	Number of bonds                        : 2
	Number of Urey-Bradleys                : 0
	Number of bends                        : 0
	Number of inversion bends              : 0
	Number of torsions                     : 0
	Number of improper torsions            : 0
	Number of improper torsions            : 0

	Number of bond/bond cross terms        : 0
	Number of bond/bend cross terms        : 0
	Number of bend/bend cross terms        : 0
	Number of stretch/torsion cross terms  : 0
	Number of bend/torsion cross terms     : 0

	Number of charges                      : 3
	Number of bond-dipoles                 : 0

	Number of intra Van der Waals                             : 0
	Number of intra charge-charge Coulomb                     : 0
	Number of intra charge-bonddipole Coulomb                 : 0
	Number of intra bonddipole-bonddipole Coulomb             : 0

	Number of excluded intra charge-charge Coulomb                     : 3
	Number of excluded intra charge-bonddipole Coulomb                 : 0
	Number of excluded intra bonddipole-bonddipole Coulomb             : 0

	Number of cbmc-config moves                               : 0

	Particle Moves:             
		ProbabilityTranslationMove:                  0.000000
			TranslationDirection:      XYZ
		Percentage of random translation moves:            0.000000
		Percentage of rotation moves:                      0.000000
		Percentage of random rotation moves:               0.000000
		Percentage of partial reinsertion moves:           0.000000
		Percentage of reinsertion moves:                   0.000000
		Percentage of reinsertion-in-place moves:          0.000000
		Percentage of reinsertion-in-plane moves:          0.000000
		Percentage of identity-change moves:               0.000000
		Percentage of swap (insert/delete) moves:          0.000000
		Percentage of CF swap lambda moves:                0.000000
		Percentage of CB/CFMC swap lambda moves:           0.000000
		Percentage of Widom insertion moves:               100.000000
		Percentage of CF-Widom insertion moves:            0.000000
		Percentage of Gibbs Widom insertion moves:         0.000000
		Percentage of surface-area moves:                  0.000000
		Percentage of Gibbs particle-transfer moves:       0.000000
		Percentage of Gibbs identity-change moves:         0.000000
		Percentage of CF Gibbs lambda-transfer moves:      0.000000
		Percentage of CB/CFMC Gibbs lambda-transfer moves: 0.000000
		Percentage of exchange frac./int. particle moves:  0.000000
		Percentage of fractional mol. to other box moves:  0.000000
		Percentage of lambda-change moves:                 0.000000
		Percentage of fractional to integer moves:         0.000000

	System Moves:
		Percentage of parallel-tempering moves:            0.000000
		Percentage of hyper-parallel-tempering moves:      0.000000
		Percentage of parallel-mol-fraction moves:         0.000000
			   Component A: 0 B: 1
		Percentage of chiral inversion moves:              0.000000
		Percentage of Hybrid-NVE moves:                    0.000000
		Percentage of Hybrid-NPH moves:                    0.000000
		Percentage of Hybrid-NPHPR moves:                  0.000000
		Percentage of volume-change moves:                 0.000000
		Percentage of box-shape-change moves:              0.000000
		Percentage of Gibbs volume-change moves:           0.000000
		Percentage of framework-change moves:              0.000000
		Percentage of framework-shift moves:               0.000000
		Percentage of reactive MC moves:                   0.000000

	Moves are restricted: No
	No biased sampling used for this component

	Number of Bonds: 2
	--------------------------------------------
	Bond interaction 0: A=0 B=1 Type:RIGID_BOND
		r_0=1.1490000000       [A]
	Bond interaction 1: A=1 B=2 Type:RIGID_BOND
		r_0=1.1490000000       [A]


	number of identity-config changes: 1
	--------------------------------------------
	nr fixed 1: 0 

	Number of pockets blocked in a unitcell: 0
		Pockets are NOT blocked for this component



Framework Status
===========================================================================
Lowenstein's rule obeyed by framework
	Framework is modelled as: rigid

	Number of charges:                               864
	Number of bonddipoles:                           0


System Properties
===========================================================================
Unit cell size: 6.758800 15.194100 15.194100
Cell angles (radians)  alpha: 1.084877 beta: 1.421970 gamma: 1.719622
Cell angles (degrees)  alpha: 62.158900 beta: 81.472900 gamma: 98.527100
Number of unitcells [a]: 4
Number of unitcells [b]: 2
Number of unitcells [c]: 2

TRICLINIC Boundary conditions: alpha!=90 or beta!=90 or gamma!=90

Cartesian axis A is collinear with crystallographic axis a
Cartesian axis B is collinear with (axb)xA
Cartesian axis C is collinear with (axb)

lengths of cell vectors:
 27.03520  30.38820  30.38820
cosines of cell angles:
  0.46702   0.14828  -0.14828
perpendicular cell widths:
 25.89596  26.02604  26.02604
volume of the cell: 21145.361582429607 (A^3)

Orthogonalization matrix Box
Transforms fractional coordinates abc into orthonormal Cartesian coordinates xyz
Deorthogonalization matrix InverseBox
Transforms orthonormal Cartesian coordinates xyz into fractional coordinates xyz

Box[0]:
	   27.035200000000    -4.505876707105     4.505876707105
	    0.000000000000    30.052284012041    15.026149434835
	    0.000000000000     0.000000000000    26.026037107143

Inverse box[0]:
	    0.036988814582     0.005545902534    -0.009605788128
	    0.000000000000     0.033275341056    -0.019211539780
	    0.000000000000    -0.000000000000     0.038423060564


Unitcell box[0]:
	    6.758800000000    -2.252938353552     2.252938353552
	    0.000000000000    15.026142006020     7.513074717417
	    0.000000000000     0.000000000000    13.013018553572

Unitcell inverse box[0]:
	    0.147955258330     0.022183610135    -0.038423152514
	    0.000000000000     0.066550682111    -0.038423079560
	    0.000000000000    -0.000000000000     0.076846121127

lengths of cell vectors (inverse box):
  0.03699   0.03373   0.04402
cosines of cell angles (inverse box):
 -0.46637  -0.21822   0.16440
perpendicular cell widths (inverse):
  0.03600   0.02976   0.03842
volume of the cell: 21145.361582429607 (A^3)

No replicas are used
Framework is simulated as 'rigid'
Number of framework atoms: 864
Number of framework atoms in the unit cell: 54
Framework Mass: 11645.107200000042 [g/mol]
Framework Density:   914.486678651166 [kg/m^3]    1.0935096413596 [cm^3/g]
Helium void fraction:    0.00000000
Available pore volume:    0.00000000 [A^3]    0.00000000 [cm^3/g]
Conversion factor from molecule/unit cell -> kmol/m^3: 0.0785297, kmol/m^3 accesible pore volume: inf

Number Of Frameworks (per system): 1
----------------------------------------------------------------------
Framework name: VOGTIV_LinMercado
Space group: 1
	Identifier: 1
	short international Hermann-Mauguin symbol: P 1
	long international Hermann-Mauguin symbol: P 1
	Hall symbol: P 1
	Number of lattice translations: 1 [ (0,0,0) ]
	acentric/centric: acentric
	chiral: no
	enantiomorphic: no
	number of operators: 1
		'x,y,z'
Framework is simulated as 'rigid'
Shift: 0.000000 0.000000 0.000000
Number of framework atoms: 864
Number of asymmetric atoms: 54
Number of free framework atoms: 0
Number of fixed framework atoms: 864
Number of framework atoms in the unit cell: 54
Framework Mass: 11645.107200000042 [g/mol]
Framework Density:   914.486678651166 [kg/m^3]
Framework has net charge: -0.000000
         largest charge : 1.560000
         smallest charge: -0.903000

Using FULL Host-guest interaction calculation (for testing purposes)

Current Atom Status
===========================================================================
Number of framework atoms        : 864
Number of cations molecules      : 0
Number of adsorbate molecules    : 0
Component    0 :    0 molecules
Pseudo Atoms    0 [    UNIT]:    0 atoms
Pseudo Atoms    1 [    UNIT]:    0 atoms
Pseudo Atoms    2 [      He]:    0 atoms
Pseudo Atoms    3 [  Mof_Oa]:   96 atoms
Pseudo Atoms    4 [  Mof_Ob]:   96 atoms
Pseudo Atoms    5 [  Mof_Oc]:   96 atoms
Pseudo Atoms    6 [  Mof_Ca]:   96 atoms
Pseudo Atoms    7 [  Mof_Cb]:   96 atoms
Pseudo Atoms    8 [  Mof_Cc]:   96 atoms
Pseudo Atoms    9 [  Mof_Cd]:   96 atoms
Pseudo Atoms   10 [   Mof_H]:   96 atoms
Pseudo Atoms   11 [  Mof_Mg]:   96 atoms
Pseudo Atoms   12 [      Ow]:    0 atoms
Pseudo Atoms   13 [      Hw]:    0 atoms
Pseudo Atoms   14 [       M]:    0 atoms
Pseudo Atoms   15 [   C_co2]:    0 atoms
Pseudo Atoms   16 [   O_co2]:    0 atoms
Pseudo Atoms   17 [ CH4_sp3]:    0 atoms
Pseudo Atoms   18 [    N_n2]:    0 atoms
Pseudo Atoms   19 [   N_com]:    0 atoms


Current (initial full energy) Energy Status
===========================================================================

Internal energy:
Host stretch energy:                                            0.00000000
Host UreyBradley energy:                                        0.00000000
Host bend energy:                                               0.00000000
Host inversion-bend energy:                                     0.00000000
Host torsion energy:                                            0.00000000
Host improper torsion energy:                                   0.00000000
Host out-of-plane energy:                                       0.00000000
Host stretch/stretch energy:                                    0.00000000
Host bend/bend energy:                                          0.00000000
Host stretch/bend energy:                                       0.00000000
Host stretch/torsion energy:                                    0.00000000
Host bend/torsion energy:                                       0.00000000

Adsorbate stretch energy:                                       0.00000000
Adsorbate UreyBradley energy:                                   0.00000000
Adsorbate bend energy:                                          0.00000000
Adsorbate inversion-bend energy:                                0.00000000
Adsorbate torsion energy:                                       0.00000000
Adsorbate improper torsion energy:                              0.00000000
Adsorbate out-of-plane energy:                                  0.00000000
Adsorbate stretch/stretch energy:                               0.00000000
Adsorbate bend/bend energy:                                     0.00000000
Adsorbate stretch/bend energy:                                  0.00000000
Adsorbate stretch/torsion energy:                               0.00000000
Adsorbate bend/torsion energy:                                  0.00000000
Adsorbate intra VDW energy:                                     0.00000000
Adsorbate intra charge-charge Coulomb energy:                   0.00000000
Adsorbate intra charge-bonddipole Coulomb energy:               0.00000000
Adsorbate intra bonddipole-bonddipole Coulomb energy:           0.00000000

Cation stretch energy:                                          0.00000000
Cation UreyBradley energy:                                      0.00000000
Cation bend energy:                                             0.00000000
Cation inversion-bend energy:                                   0.00000000
Cation torsion energy:                                          0.00000000
Cation improper torsion energy:                                 0.00000000
Cation out-of-plane energy:                                     0.00000000
Cation stretch/stretch energy:                                  0.00000000
Cation bend/bend energy:                                        0.00000000
Cation stretch/bend energy:                                     0.00000000
Cation stretch/torsion energy:                                  0.00000000
Cation bend/torsion energy:                                     0.00000000
Cation intra VDW energy:                                        0.00000000
Cation intra charge-charge Coulomb energy:                      0.00000000
Cation intra charge-bonddipole Coulomb energy:                  0.00000000
Cation intra bonddipole-bonddipole Coulomb energy:              0.00000000

Host/Host energy:                                             0.00000000
	Host/Host VDW energy:                                         0.00000000
	Host/Host Coulomb energy:                                     0.00000000
	Host/Host charge-charge Real energy:                          0.00000000
	Host/Host charge-charge Fourier energy:                       0.00000000
	Host/Host charge-bonddipole Real energy:                      0.00000000
	Host/Host charge-bonddipole Fourier energy:                   0.00000000
	Host/Host bondipole-bonddipole Real energy:                   0.00000000
	Host/Host bondipole-bonddipole Fourier energy:                0.00000000

Host/Adsorbate energy:                                        0.00000000
	Host/Adsorbate VDW energy:                                    0.00000000
	Host/Adsorbate Coulomb energy:                                0.00000000
	Host/Adsorbate charge-charge Real energy:                     0.00000000
	Host/Adsorbate charge-charge Fourier energy:                  0.00000000
	Host/Adsorbate charge-bonddipole Real energy:                 0.00000000
	Host/Adsorbate charge-bonddipole Fourier energy:              0.00000000
	Host/Adsorbate bondipole-bonddipole Real energy:              0.00000000
	Host/Adsorbate bondipole-bonddipole Fourier energy:           0.00000000

Host/Cation energy:                                           0.00000000
	Host/Cation VDW energy:                                       0.00000000
	Host/Cation Coulomb energy:                                   0.00000000
	Host/Cation charge-charge Real energy:                        0.00000000
	Host/Cation charge-charge Fourier energy:                     0.00000000
	Host/Cation charge-bonddipole Real energy:                    0.00000000
	Host/Cation charge-bonddipole Fourier energy:                 0.00000000
	Host/Cation bondipole-bonddipole Real energy:                 0.00000000
	Host/Cation bondipole-bonddipole Fourier energy:              0.00000000

Adsorbate/Adsorbate energy:                                        0.00000000
	Adsorbate/Adsorbate VDW energy:                                    0.00000000
	Adsorbate/Adsorbate Coulomb energy:                                0.00000000
	Adsorbate/Adsorbate charge-charge Real energy:                     0.00000000
	Adsorbate/Adsorbate charge-charge Fourier energy:                  0.00000000
	Adsorbate/Adsorbate charge-bonddipole Real energy:                 0.00000000
	Adsorbate/Adsorbate charge-bonddipole Fourier energy:              0.00000000
	Adsorbate/Adsorbate bondipole-bonddipole Real energy:              0.00000000
	Adsorbate/Adsorbate bondipole-bonddipole Fourier energy:           0.00000000

Adsorbate/Cation energy:                                           0.00000000
	Adsorbate/Cation VDW energy:                                       0.00000000
	Adsorbate/Cation Coulomb energy:                                   0.00000000
	Adsorbate/Cation charge-charge Real energy:                        0.00000000
	Adsorbate/Cation charge-charge Fourier energy:                     0.00000000
	Adsorbate/Cation charge-bonddipole Real energy:                    0.00000000
	Adsorbate/Cation charge-bonddipole Fourier energy:                 0.00000000
	Adsorbate/Cation bondipole-bonddipole Real energy:                 0.00000000
	Adsorbate/Cation bondipole-bonddipole Fourier energy:              0.00000000

Cation/Cation energy:                                           0.00000000
	Cation/Cation VDW energy:                                       0.00000000
	Cation/Cation Coulomb energy:                                   0.00000000
	Cation/Cation charge-charge Real energy:                        0.00000000
	Cation/Cation charge-charge Fourier energy:                     0.00000000
	Cation/Cation charge-bonddipole Real energy:                    0.00000000
	Cation/Cation charge-bonddipole Fourier energy:                 0.00000000
	Cation/Cation bondipole-bonddipole Real energy:                 0.00000000
	Cation/Cation bondipole-bonddipole Fourier energy:              0.00000000

Polarization energy:
	Host polarization energy:                                     0.00000000
	Adsorbate polarization energy:                                0.00000000
	Cation polarization energy:                                   0.00000000
	Host back-polarization energy:                                     0.00000000
	Adsorbate back-polarization energy:                                0.00000000
	Cation back-polarization energy:                                   0.00000000

Tail-correction energy:                                       0.00000000

Distance constraints energy:                                  0.00000000
Angle constraints energy:                                     0.00000000
Dihedral constraints energy:                                  0.00000000
Inversion-bend constraints energy:                            0.00000000
Out-of-plane distance constraints energy:                     0.00000000
Exclusion constraints energy:                                 0.00000000

===================================================================
Total energy:     0.000000000000
	Total Van der Waals: 0.000000
	Total Coulomb: 0.000000

	Total Polarization: 0.000000







+++++++++++++++++++++++++++++++++++++++++++++++++++++++++++++++++++++++++
Starting simulation
+++++++++++++++++++++++++++++++++++++++++++++++++++++++++++++++++++++++++

Average Properties at Current cycle: 0 out of 10000
========================================================================================

Framework surface area:       0.0000000000 [m^2/g]        0.0000000000 [m^2/cm^3]       0.0000000000 [A^2]
	Framework 0 individual surface area:       0.0000000000 [m^2/g]        0.0000000000 [m^2/cm^3]       0.0000000000 [A^2]
	Cation surface area:                       0.0000000000 [m^2/g]        0.0000000000 [m^2/cm^3]       0.0000000000 [A^2]
Compressibility:               -nan [-]
Henry coefficients
	Component 0: 0 [mol/kg/Pa] (Rosenbluth factor new: 0 [-])
Energy <U_gh>_1-<U_h>_0 from Widom
	Component 0:       0.0000000000 [K]  (      0.0000000000 [kJ/mol])
Component [CO2] average Widom:       0.0000000000, average chemical potential:                inf [K]
		(average excess chemical potential:                inf [K], ideal-gas contribution:                inf [K])


Current cycle: 0 out of 10000
========================================================================================================

Net charge: -5.60108e-14 (F: -5.60108e-14, A: 0, C: 0)
Current Box:  27.03520  -4.50588   4.50588 [A]   Average Box:  27.03520  -4.50588   4.50588 [A]
               0.00000  30.05228  15.02615 [A]                  0.00000  30.05228  15.02615 [A]
               0.00000   0.00000  26.02604 [A]                  0.00000   0.00000  26.02604 [A]
Box-lengths:   27.03520  30.38820  30.38820 [A] Average:  27.03520  30.38820  30.38820 [A]
Box-angles:   62.15890  81.47290  98.52710 [degrees] Average:  62.15890  81.47290  98.52710 [degrees]
Volume: 21145.36158 [A^3] Average Volume: 21145.36158 [A^3]

Loadings per component:
----------------------------------------------------------------------------------------------------------------------------------------------------
Component 0 (CO2), current number of integer/fractional/reaction molecules: 0/0/0 (avg.   0.00000), density:   0.00000 (avg.   0.00000) [kg/m^3]
	absolute adsorption:   0.00000 (avg.   0.00000) [mol/uc],   0.0000000000 (avg.   0.0000000000) [mol/kg],   0.0000000000 (avg.   0.0000000000) [mg/g]
	                       0.0000000000 (avg.   0.0000000000) [cm^3 STP/g],    0.0000000000 (avg.   0.0000000000) [cm^3 STP/cm^3]
	excess adsorption:     0.0000000000 (avg.   0.0000000000) [mol/uc],   0.0000000000 (avg.   0.0000000000) [mol/kg],   0.0000000000 (avg.   0.0000000000) [mg/g]
	                       0.0000000000 (avg.   0.0000000000) [cm^3 STP/g],    0.0000000000 (avg.   0.0000000000) [cm^3 STP/cm^3]
----------------------------------------------------------------------------------------------------------------------------------------------------
Degrees of freedom: 0 0 0 0
Number of Framework-atoms:    864
Number of Adsorbates:           0 (0 integer, 0 fractional, 0 reaction)
Number of Cations:              0 (0 integer, 0 fractional, 0 reaction)

Current total potential energy:                 0.0000000000 [K]  (avg.           0.0000000000)
	Current Host-Host energy:                     0.0000000000 [K]  (avg.           0.0000000000)
	Current Host-Adsorbate energy:                0.0000000000 [K]  (avg.           0.0000000000)
	Current Host-Cation energy:                   0.0000000000 [K]  (avg.           0.0000000000)
	Current Adsorbate-Adsorbate energy:           0.0000000000 [K]  (avg.           0.0000000000)
	Current Cation-Cation energy:                 0.0000000000 [K]  (avg.           0.0000000000)
	Current Adsorbate-Cation energy:              0.0000000000 [K]  (avg.           0.0000000000)



Average Properties at Current cycle: 1000 out of 10000
========================================================================================

Framework surface area:       0.0000000000 [m^2/g]        0.0000000000 [m^2/cm^3]       0.0000000000 [A^2]
	Framework 0 individual surface area:       0.0000000000 [m^2/g]        0.0000000000 [m^2/cm^3]       0.0000000000 [A^2]
	Cation surface area:                       0.0000000000 [m^2/g]        0.0000000000 [m^2/cm^3]       0.0000000000 [A^2]
Compressibility:               -nan [-]
Henry coefficients
	Component 0: 0.0559102 [mol/kg/Pa] (Rosenbluth factor new: 137311 [-])
Energy <U_gh>_1-<U_h>_0 from Widom
	Component 0:   -6706.7431611950 [K]  (    -55.7629807345 [kJ/mol])
Component [CO2] average Widom:  137310.9435185176, average chemical potential:   -7037.9111079016 [K]
		(average excess chemical potential:   -3821.0944542089 [K], ideal-gas contribution:   -3216.8166536926 [K])


Current cycle: 1000 out of 10000
========================================================================================================

Net charge: -5.60108e-14 (F: -5.60108e-14, A: 0, C: 0)
Current Box:  27.03520  -4.50588   4.50588 [A]   Average Box:  27.03520  -4.50588   4.50588 [A]
               0.00000  30.05228  15.02615 [A]                  0.00000  30.05228  15.02615 [A]
               0.00000   0.00000  26.02604 [A]                  0.00000   0.00000  26.02604 [A]
Box-lengths:   27.03520  30.38820  30.38820 [A] Average:  27.03520  30.38820  30.38820 [A]
Box-angles:   62.15890  81.47290  98.52710 [degrees] Average:  62.15890  81.47290  98.52710 [degrees]
Volume: 21145.36158 [A^3] Average Volume: 21145.36158 [A^3]

Loadings per component:
----------------------------------------------------------------------------------------------------------------------------------------------------
Component 0 (CO2), current number of integer/fractional/reaction molecules: 0/0/0 (avg.   0.00000), density:   0.00000 (avg.   0.00000) [kg/m^3]
	absolute adsorption:   0.00000 (avg.   0.00000) [mol/uc],   0.0000000000 (avg.   0.0000000000) [mol/kg],   0.0000000000 (avg.   0.0000000000) [mg/g]
	                       0.0000000000 (avg.   0.0000000000) [cm^3 STP/g],    0.0000000000 (avg.   0.0000000000) [cm^3 STP/cm^3]
	excess adsorption:     0.0000000000 (avg.   0.0000000000) [mol/uc],   0.0000000000 (avg.   0.0000000000) [mol/kg],   0.0000000000 (avg.   0.0000000000) [mg/g]
	                       0.0000000000 (avg.   0.0000000000) [cm^3 STP/g],    0.0000000000 (avg.   0.0000000000) [cm^3 STP/cm^3]
----------------------------------------------------------------------------------------------------------------------------------------------------
Degrees of freedom: 0 0 0 0
Number of Framework-atoms:    864
Number of Adsorbates:           0 (0 integer, 0 fractional, 0 reaction)
Number of Cations:              0 (0 integer, 0 fractional, 0 reaction)

Current total potential energy:                 0.0000000000 [K]  (avg.           0.0000000000)
	Current Host-Host energy:                     0.0000000000 [K]  (avg.           0.0000000000)
	Current Host-Adsorbate energy:                0.0000000000 [K]  (avg.           0.0000000000)
	Current Host-Cation energy:                   0.0000000000 [K]  (avg.           0.0000000000)
	Current Adsorbate-Adsorbate energy:           0.0000000000 [K]  (avg.           0.0000000000)
	Current Cation-Cation energy:                 0.0000000000 [K]  (avg.           0.0000000000)
	Current Adsorbate-Cation energy:              0.0000000000 [K]  (avg.           0.0000000000)



Average Properties at Current cycle: 2000 out of 10000
========================================================================================

Framework surface area:       0.0000000000 [m^2/g]        0.0000000000 [m^2/cm^3]       0.0000000000 [A^2]
	Framework 0 individual surface area:       0.0000000000 [m^2/g]        0.0000000000 [m^2/cm^3]       0.0000000000 [A^2]
	Cation surface area:                       0.0000000000 [m^2/g]        0.0000000000 [m^2/cm^3]       0.0000000000 [A^2]
Compressibility:               -nan [-]
Henry coefficients
	Component 0: 0.0458648 [mol/kg/Pa] (Rosenbluth factor new: 112640 [-])
Energy <U_gh>_1-<U_h>_0 from Widom
	Component 0:   -6584.0484892566 [K]  (    -54.7428401889 [kJ/mol])
Component [CO2] average Widom:  112640.1663449567, average chemical potential:   -6973.9410156252 [K]
		(average excess chemical potential:   -3757.1243619328 [K], ideal-gas contribution:   -3216.8166536924 [K])


Current cycle: 2000 out of 10000
========================================================================================================

Net charge: -5.60108e-14 (F: -5.60108e-14, A: 0, C: 0)
Current Box:  27.03520  -4.50588   4.50588 [A]   Average Box:  27.03520  -4.50588   4.50588 [A]
               0.00000  30.05228  15.02615 [A]                  0.00000  30.05228  15.02615 [A]
               0.00000   0.00000  26.02604 [A]                  0.00000   0.00000  26.02604 [A]
Box-lengths:   27.03520  30.38820  30.38820 [A] Average:  27.03520  30.38820  30.38820 [A]
Box-angles:   62.15890  81.47290  98.52710 [degrees] Average:  62.15890  81.47290  98.52710 [degrees]
Volume: 21145.36158 [A^3] Average Volume: 21145.36158 [A^3]

Loadings per component:
----------------------------------------------------------------------------------------------------------------------------------------------------
Component 0 (CO2), current number of integer/fractional/reaction molecules: 0/0/0 (avg.   0.00000), density:   0.00000 (avg.   0.00000) [kg/m^3]
	absolute adsorption:   0.00000 (avg.   0.00000) [mol/uc],   0.0000000000 (avg.   0.0000000000) [mol/kg],   0.0000000000 (avg.   0.0000000000) [mg/g]
	                       0.0000000000 (avg.   0.0000000000) [cm^3 STP/g],    0.0000000000 (avg.   0.0000000000) [cm^3 STP/cm^3]
	excess adsorption:     0.0000000000 (avg.   0.0000000000) [mol/uc],   0.0000000000 (avg.   0.0000000000) [mol/kg],   0.0000000000 (avg.   0.0000000000) [mg/g]
	                       0.0000000000 (avg.   0.0000000000) [cm^3 STP/g],    0.0000000000 (avg.   0.0000000000) [cm^3 STP/cm^3]
----------------------------------------------------------------------------------------------------------------------------------------------------
Degrees of freedom: 0 0 0 0
Number of Framework-atoms:    864
Number of Adsorbates:           0 (0 integer, 0 fractional, 0 reaction)
Number of Cations:              0 (0 integer, 0 fractional, 0 reaction)

Current total potential energy:                 0.0000000000 [K]  (avg.           0.0000000000)
	Current Host-Host energy:                     0.0000000000 [K]  (avg.           0.0000000000)
	Current Host-Adsorbate energy:                0.0000000000 [K]  (avg.           0.0000000000)
	Current Host-Cation energy:                   0.0000000000 [K]  (avg.           0.0000000000)
	Current Adsorbate-Adsorbate energy:           0.0000000000 [K]  (avg.           0.0000000000)
	Current Cation-Cation energy:                 0.0000000000 [K]  (avg.           0.0000000000)
	Current Adsorbate-Cation energy:              0.0000000000 [K]  (avg.           0.0000000000)



Average Properties at Current cycle: 3000 out of 10000
========================================================================================

Framework surface area:       0.0000000000 [m^2/g]        0.0000000000 [m^2/cm^3]       0.0000000000 [A^2]
	Framework 0 individual surface area:       0.0000000000 [m^2/g]        0.0000000000 [m^2/cm^3]       0.0000000000 [A^2]
	Cation surface area:                       0.0000000000 [m^2/g]        0.0000000000 [m^2/cm^3]       0.0000000000 [A^2]
Compressibility:               -nan [-]
Henry coefficients
	Component 0: 0.0424903 [mol/kg/Pa] (Rosenbluth factor new: 104353 [-])
Energy <U_gh>_1-<U_h>_0 from Widom
	Component 0:   -6496.7283059710 [K]  (    -54.0168195883 [kJ/mol])
Component [CO2] average Widom:  104352.7324342486, average chemical potential:   -6949.2568328382 [K]
		(average excess chemical potential:   -3732.4401791457 [K], ideal-gas contribution:   -3216.8166536925 [K])


Current cycle: 3000 out of 10000
========================================================================================================

Net charge: -5.60108e-14 (F: -5.60108e-14, A: 0, C: 0)
Current Box:  27.03520  -4.50588   4.50588 [A]   Average Box:  27.03520  -4.50588   4.50588 [A]
               0.00000  30.05228  15.02615 [A]                  0.00000  30.05228  15.02615 [A]
               0.00000   0.00000  26.02604 [A]                  0.00000   0.00000  26.02604 [A]
Box-lengths:   27.03520  30.38820  30.38820 [A] Average:  27.03520  30.38820  30.38820 [A]
Box-angles:   62.15890  81.47290  98.52710 [degrees] Average:  62.15890  81.47290  98.52710 [degrees]
Volume: 21145.36158 [A^3] Average Volume: 21145.36158 [A^3]

Loadings per component:
----------------------------------------------------------------------------------------------------------------------------------------------------
Component 0 (CO2), current number of integer/fractional/reaction molecules: 0/0/0 (avg.   0.00000), density:   0.00000 (avg.   0.00000) [kg/m^3]
	absolute adsorption:   0.00000 (avg.   0.00000) [mol/uc],   0.0000000000 (avg.   0.0000000000) [mol/kg],   0.0000000000 (avg.   0.0000000000) [mg/g]
	                       0.0000000000 (avg.   0.0000000000) [cm^3 STP/g],    0.0000000000 (avg.   0.0000000000) [cm^3 STP/cm^3]
	excess adsorption:     0.0000000000 (avg.   0.0000000000) [mol/uc],   0.0000000000 (avg.   0.0000000000) [mol/kg],   0.0000000000 (avg.   0.0000000000) [mg/g]
	                       0.0000000000 (avg.   0.0000000000) [cm^3 STP/g],    0.0000000000 (avg.   0.0000000000) [cm^3 STP/cm^3]
----------------------------------------------------------------------------------------------------------------------------------------------------
Degrees of freedom: 0 0 0 0
Number of Framework-atoms:    864
Number of Adsorbates:           0 (0 integer, 0 fractional, 0 reaction)
Number of Cations:              0 (0 integer, 0 fractional, 0 reaction)

Current total potential energy:                 0.0000000000 [K]  (avg.           0.0000000000)
	Current Host-Host energy:                     0.0000000000 [K]  (avg.           0.0000000000)
	Current Host-Adsorbate energy:                0.0000000000 [K]  (avg.           0.0000000000)
	Current Host-Cation energy:                   0.0000000000 [K]  (avg.           0.0000000000)
	Current Adsorbate-Adsorbate energy:           0.0000000000 [K]  (avg.           0.0000000000)
	Current Cation-Cation energy:                 0.0000000000 [K]  (avg.           0.0000000000)
	Current Adsorbate-Cation energy:              0.0000000000 [K]  (avg.           0.0000000000)



Average Properties at Current cycle: 4000 out of 10000
========================================================================================

Framework surface area:       0.0000000000 [m^2/g]        0.0000000000 [m^2/cm^3]       0.0000000000 [A^2]
	Framework 0 individual surface area:       0.0000000000 [m^2/g]        0.0000000000 [m^2/cm^3]       0.0000000000 [A^2]
	Cation surface area:                       0.0000000000 [m^2/g]        0.0000000000 [m^2/cm^3]       0.0000000000 [A^2]
Compressibility:               -nan [-]
Henry coefficients
	Component 0: 0.0393815 [mol/kg/Pa] (Rosenbluth factor new: 96717.9 [-])
Energy <U_gh>_1-<U_h>_0 from Widom
	Component 0:   -6438.0707701961 [K]  (    -53.5291135648 [kJ/mol])
Component [CO2] average Widom:   96717.9321925970, average chemical potential:   -6924.7159197444 [K]
		(average excess chemical potential:   -3707.8992660520 [K], ideal-gas contribution:   -3216.8166536924 [K])


Current cycle: 4000 out of 10000
========================================================================================================

Net charge: -5.60108e-14 (F: -5.60108e-14, A: 0, C: 0)
Current Box:  27.03520  -4.50588   4.50588 [A]   Average Box:  27.03520  -4.50588   4.50588 [A]
               0.00000  30.05228  15.02615 [A]                  0.00000  30.05228  15.02615 [A]
               0.00000   0.00000  26.02604 [A]                  0.00000   0.00000  26.02604 [A]
Box-lengths:   27.03520  30.38820  30.38820 [A] Average:  27.03520  30.38820  30.38820 [A]
Box-angles:   62.15890  81.47290  98.52710 [degrees] Average:  62.15890  81.47290  98.52710 [degrees]
Volume: 21145.36158 [A^3] Average Volume: 21145.36158 [A^3]

Loadings per component:
----------------------------------------------------------------------------------------------------------------------------------------------------
Component 0 (CO2), current number of integer/fractional/reaction molecules: 0/0/0 (avg.   0.00000), density:   0.00000 (avg.   0.00000) [kg/m^3]
	absolute adsorption:   0.00000 (avg.   0.00000) [mol/uc],   0.0000000000 (avg.   0.0000000000) [mol/kg],   0.0000000000 (avg.   0.0000000000) [mg/g]
	                       0.0000000000 (avg.   0.0000000000) [cm^3 STP/g],    0.0000000000 (avg.   0.0000000000) [cm^3 STP/cm^3]
	excess adsorption:     0.0000000000 (avg.   0.0000000000) [mol/uc],   0.0000000000 (avg.   0.0000000000) [mol/kg],   0.0000000000 (avg.   0.0000000000) [mg/g]
	                       0.0000000000 (avg.   0.0000000000) [cm^3 STP/g],    0.0000000000 (avg.   0.0000000000) [cm^3 STP/cm^3]
----------------------------------------------------------------------------------------------------------------------------------------------------
Degrees of freedom: 0 0 0 0
Number of Framework-atoms:    864
Number of Adsorbates:           0 (0 integer, 0 fractional, 0 reaction)
Number of Cations:              0 (0 integer, 0 fractional, 0 reaction)

Current total potential energy:                 0.0000000000 [K]  (avg.           0.0000000000)
	Current Host-Host energy:                     0.0000000000 [K]  (avg.           0.0000000000)
	Current Host-Adsorbate energy:                0.0000000000 [K]  (avg.           0.0000000000)
	Current Host-Cation energy:                   0.0000000000 [K]  (avg.           0.0000000000)
	Current Adsorbate-Adsorbate energy:           0.0000000000 [K]  (avg.           0.0000000000)
	Current Cation-Cation energy:                 0.0000000000 [K]  (avg.           0.0000000000)
	Current Adsorbate-Cation energy:              0.0000000000 [K]  (avg.           0.0000000000)



Average Properties at Current cycle: 5000 out of 10000
========================================================================================

Framework surface area:       0.0000000000 [m^2/g]        0.0000000000 [m^2/cm^3]       0.0000000000 [A^2]
	Framework 0 individual surface area:       0.0000000000 [m^2/g]        0.0000000000 [m^2/cm^3]       0.0000000000 [A^2]
	Cation surface area:                       0.0000000000 [m^2/g]        0.0000000000 [m^2/cm^3]       0.0000000000 [A^2]
Compressibility:               -nan [-]
Henry coefficients
	Component 0: 0.0361634 [mol/kg/Pa] (Rosenbluth factor new: 88814.4 [-])
Energy <U_gh>_1-<U_h>_0 from Widom
	Component 0:   -6383.0955241871 [K]  (    -53.0720238105 [kJ/mol])
Component [CO2] average Widom:   88814.3590662957, average chemical potential:   -6897.1799874822 [K]
		(average excess chemical potential:   -3680.3633337897 [K], ideal-gas contribution:   -3216.8166536925 [K])


Current cycle: 5000 out of 10000
========================================================================================================

Net charge: -5.60108e-14 (F: -5.60108e-14, A: 0, C: 0)
Current Box:  27.03520  -4.50588   4.50588 [A]   Average Box:  27.03520  -4.50588   4.50588 [A]
               0.00000  30.05228  15.02615 [A]                  0.00000  30.05228  15.02615 [A]
               0.00000   0.00000  26.02604 [A]                  0.00000   0.00000  26.02604 [A]
Box-lengths:   27.03520  30.38820  30.38820 [A] Average:  27.03520  30.38820  30.38820 [A]
Box-angles:   62.15890  81.47290  98.52710 [degrees] Average:  62.15890  81.47290  98.52710 [degrees]
Volume: 21145.36158 [A^3] Average Volume: 21145.36158 [A^3]

Loadings per component:
----------------------------------------------------------------------------------------------------------------------------------------------------
Component 0 (CO2), current number of integer/fractional/reaction molecules: 0/0/0 (avg.   0.00000), density:   0.00000 (avg.   0.00000) [kg/m^3]
	absolute adsorption:   0.00000 (avg.   0.00000) [mol/uc],   0.0000000000 (avg.   0.0000000000) [mol/kg],   0.0000000000 (avg.   0.0000000000) [mg/g]
	                       0.0000000000 (avg.   0.0000000000) [cm^3 STP/g],    0.0000000000 (avg.   0.0000000000) [cm^3 STP/cm^3]
	excess adsorption:     0.0000000000 (avg.   0.0000000000) [mol/uc],   0.0000000000 (avg.   0.0000000000) [mol/kg],   0.0000000000 (avg.   0.0000000000) [mg/g]
	                       0.0000000000 (avg.   0.0000000000) [cm^3 STP/g],    0.0000000000 (avg.   0.0000000000) [cm^3 STP/cm^3]
----------------------------------------------------------------------------------------------------------------------------------------------------
Degrees of freedom: 0 0 0 0
Number of Framework-atoms:    864
Number of Adsorbates:           0 (0 integer, 0 fractional, 0 reaction)
Number of Cations:              0 (0 integer, 0 fractional, 0 reaction)

Current total potential energy:                 0.0000000000 [K]  (avg.           0.0000000000)
	Current Host-Host energy:                     0.0000000000 [K]  (avg.           0.0000000000)
	Current Host-Adsorbate energy:                0.0000000000 [K]  (avg.           0.0000000000)
	Current Host-Cation energy:                   0.0000000000 [K]  (avg.           0.0000000000)
	Current Adsorbate-Adsorbate energy:           0.0000000000 [K]  (avg.           0.0000000000)
	Current Cation-Cation energy:                 0.0000000000 [K]  (avg.           0.0000000000)
	Current Adsorbate-Cation energy:              0.0000000000 [K]  (avg.           0.0000000000)



Average Properties at Current cycle: 6000 out of 10000
========================================================================================

Framework surface area:       0.0000000000 [m^2/g]        0.0000000000 [m^2/cm^3]       0.0000000000 [A^2]
	Framework 0 individual surface area:       0.0000000000 [m^2/g]        0.0000000000 [m^2/cm^3]       0.0000000000 [A^2]
	Cation surface area:                       0.0000000000 [m^2/g]        0.0000000000 [m^2/cm^3]       0.0000000000 [A^2]
Compressibility:               -nan [-]
Henry coefficients
	Component 0: 0.0358805 [mol/kg/Pa] (Rosenbluth factor new: 88119.6 [-])
Energy <U_gh>_1-<U_h>_0 from Widom
	Component 0:   -6383.4288593510 [K]  (    -53.0747953140 [kJ/mol])
Component [CO2] average Widom:   88119.6429158601, average chemical potential:   -6894.6435087237 [K]
		(average excess chemical potential:   -3677.8268550313 [K], ideal-gas contribution:   -3216.8166536924 [K])


Current cycle: 6000 out of 10000
========================================================================================================

Net charge: -5.60108e-14 (F: -5.60108e-14, A: 0, C: 0)
Current Box:  27.03520  -4.50588   4.50588 [A]   Average Box:  27.03520  -4.50588   4.50588 [A]
               0.00000  30.05228  15.02615 [A]                  0.00000  30.05228  15.02615 [A]
               0.00000   0.00000  26.02604 [A]                  0.00000   0.00000  26.02604 [A]
Box-lengths:   27.03520  30.38820  30.38820 [A] Average:  27.03520  30.38820  30.38820 [A]
Box-angles:   62.15890  81.47290  98.52710 [degrees] Average:  62.15890  81.47290  98.52710 [degrees]
Volume: 21145.36158 [A^3] Average Volume: 21145.36158 [A^3]

Loadings per component:
----------------------------------------------------------------------------------------------------------------------------------------------------
Component 0 (CO2), current number of integer/fractional/reaction molecules: 0/0/0 (avg.   0.00000), density:   0.00000 (avg.   0.00000) [kg/m^3]
	absolute adsorption:   0.00000 (avg.   0.00000) [mol/uc],   0.0000000000 (avg.   0.0000000000) [mol/kg],   0.0000000000 (avg.   0.0000000000) [mg/g]
	                       0.0000000000 (avg.   0.0000000000) [cm^3 STP/g],    0.0000000000 (avg.   0.0000000000) [cm^3 STP/cm^3]
	excess adsorption:     0.0000000000 (avg.   0.0000000000) [mol/uc],   0.0000000000 (avg.   0.0000000000) [mol/kg],   0.0000000000 (avg.   0.0000000000) [mg/g]
	                       0.0000000000 (avg.   0.0000000000) [cm^3 STP/g],    0.0000000000 (avg.   0.0000000000) [cm^3 STP/cm^3]
----------------------------------------------------------------------------------------------------------------------------------------------------
Degrees of freedom: 0 0 0 0
Number of Framework-atoms:    864
Number of Adsorbates:           0 (0 integer, 0 fractional, 0 reaction)
Number of Cations:              0 (0 integer, 0 fractional, 0 reaction)

[...]
=======================================
	Block[ 0]            0.00000 [K]
	Block[ 1]            0.00000 [K]
	Block[ 2]            0.00000 [K]
	Block[ 3]            0.00000 [K]
	Block[ 4]            0.00000 [K]
	------------------------------------------------------------------------------
	Average              0.00000 [K] +/-            0.00000 [K]

Average Cation Bond-Bond cross term energy:
=================================================
	Block[ 0]            0.00000 [K]
	Block[ 1]            0.00000 [K]
	Block[ 2]            0.00000 [K]
	Block[ 3]            0.00000 [K]
	Block[ 4]            0.00000 [K]
	------------------------------------------------------------------------------
	Average              0.00000 [K] +/-            0.00000 [K]

Average Cation Bend-Bend cross term energy:
===========================================
	Block[ 0]            0.00000 [K]
	Block[ 1]            0.00000 [K]
	Block[ 2]            0.00000 [K]
	Block[ 3]            0.00000 [K]
	Block[ 4]            0.00000 [K]
	------------------------------------------------------------------------------
	Average              0.00000 [K] +/-            0.00000 [K]

Average Cation Bond-Bend cross term energy:
==============================================
	Block[ 0]            0.00000 [K]
	Block[ 1]            0.00000 [K]
	Block[ 2]            0.00000 [K]
	Block[ 3]            0.00000 [K]
	Block[ 4]            0.00000 [K]
	------------------------------------------------------------------------------
	Average              0.00000 [K] +/-            0.00000 [K]

Average Cation Bond-Torsion cross term energy:
==============================================
	Block[ 0]            0.00000 [K]
	Block[ 1]            0.00000 [K]
	Block[ 2]            0.00000 [K]
	Block[ 3]            0.00000 [K]
	Block[ 4]            0.00000 [K]
	------------------------------------------------------------------------------
	Average              0.00000 [K] +/-            0.00000 [K]

Average Cation Bend-Torsion cross term energy:
==============================================
	Block[ 0]            0.00000 [K]
	Block[ 1]            0.00000 [K]
	Block[ 2]            0.00000 [K]
	Block[ 3]            0.00000 [K]
	Block[ 4]            0.00000 [K]
	------------------------------------------------------------------------------
	Average              0.00000 [K] +/-            0.00000 [K]

Average Cation Intra Van der Waals energy:
==========================================
	Block[ 0]            0.00000 [K]
	Block[ 1]            0.00000 [K]
	Block[ 2]            0.00000 [K]
	Block[ 3]            0.00000 [K]
	Block[ 4]            0.00000 [K]
	------------------------------------------------------------------------------
	Average              0.00000 [K] +/-            0.00000 [K]

Average Cation Intra charge-charge Coulomb energy:
====================================
	Block[ 0]            0.00000 [K]
	Block[ 1]            0.00000 [K]
	Block[ 2]            0.00000 [K]
	Block[ 3]            0.00000 [K]
	Block[ 4]            0.00000 [K]
	------------------------------------------------------------------------------
	Average              0.00000 [K] +/-            0.00000 [K]

Average Cation Intra charge-bonddipole Coulomb energy:
====================================
	Block[ 0]            0.00000 [K]
	Block[ 1]            0.00000 [K]
	Block[ 2]            0.00000 [K]
	Block[ 3]            0.00000 [K]
	Block[ 4]            0.00000 [K]
	------------------------------------------------------------------------------
	Average              0.00000 [K] +/-            0.00000 [K]

Average Cation Intra bonddipole-bonddipole Coulomb energy:
====================================
	Block[ 0]            0.00000 [K]
	Block[ 1]            0.00000 [K]
	Block[ 2]            0.00000 [K]
	Block[ 3]            0.00000 [K]
	Block[ 4]            0.00000 [K]
	------------------------------------------------------------------------------
	Average              0.00000 [K] +/-            0.00000 [K]

Average Host-Host energy:
=========================
	Block[ 0] 0.00000            Van der Waals: 0.00000            Coulomb: 0.00000            [K]
	Block[ 1] 0.00000            Van der Waals: 0.00000            Coulomb: 0.00000            [K]
	Block[ 2] 0.00000            Van der Waals: 0.00000            Coulomb: 0.00000            [K]
	Block[ 3] 0.00000            Van der Waals: 0.00000            Coulomb: 0.00000            [K]
	Block[ 4] 0.00000            Van der Waals: 0.00000            Coulomb: 0.00000            [K]
	------------------------------------------------------------------------------
	Average   0.00000            Van der Waals: 0.000000           Coulomb: 0.00000            [K]
	      +/- 0.00000                       +/- 0.000000                +/- 0.00000            [K]

Average Adsorbate-Adsorbate energy:
===================================
	Block[ 0] 0.00000            Van der Waals: 0.00000            Coulomb: 0.00000            [K]
	Block[ 1] 0.00000            Van der Waals: 0.00000            Coulomb: 0.00000            [K]
	Block[ 2] 0.00000            Van der Waals: 0.00000            Coulomb: 0.00000            [K]
	Block[ 3] 0.00000            Van der Waals: 0.00000            Coulomb: 0.00000            [K]
	Block[ 4] 0.00000            Van der Waals: 0.00000            Coulomb: 0.00000            [K]
	------------------------------------------------------------------------------
	Average   0.00000            Van der Waals: 0.000000           Coulomb: 0.00000            [K]
	      +/- 0.00000                       +/- 0.000000                +/- 0.00000            [K]

Average Cation-Cation energy:
=============================
	Block[ 0] 0.00000            Van der Waals: 0.00000            Coulomb: 0.00000            [K]
	Block[ 1] 0.00000            Van der Waals: 0.00000            Coulomb: 0.00000            [K]
	Block[ 2] 0.00000            Van der Waals: 0.00000            Coulomb: 0.00000            [K]
	Block[ 3] 0.00000            Van der Waals: 0.00000            Coulomb: 0.00000            [K]
	Block[ 4] 0.00000            Van der Waals: 0.00000            Coulomb: 0.00000            [K]
	------------------------------------------------------------------------------
	Average   0.00000            Van der Waals: 0.000000           Coulomb: 0.00000            [K]
	      +/- 0.00000                       +/- 0.000000                +/- 0.00000            [K]

Average Host-Adsorbate energy:
==============================
	Block[ 0] 0.00000            Van der Waals: 0.00000            Coulomb: 0.00000            [K]
	Block[ 1] 0.00000            Van der Waals: 0.00000            Coulomb: 0.00000            [K]
	Block[ 2] 0.00000            Van der Waals: 0.00000            Coulomb: 0.00000            [K]
	Block[ 3] 0.00000            Van der Waals: 0.00000            Coulomb: 0.00000            [K]
	Block[ 4] 0.00000            Van der Waals: 0.00000            Coulomb: 0.00000            [K]
	------------------------------------------------------------------------------
	Average   0.00000            Van der Waals: 0.000000           Coulomb: 0.00000            [K]
	      +/- 0.00000                       +/- 0.000000                +/- 0.00000            [K]

Average Host-Cation energy:
===========================
	Block[ 0] 0.00000            Van der Waals: 0.00000            Coulomb: 0.00000            [K]
	Block[ 1] 0.00000            Van der Waals: 0.00000            Coulomb: 0.00000            [K]
	Block[ 2] 0.00000            Van der Waals: 0.00000            Coulomb: 0.00000            [K]
	Block[ 3] 0.00000            Van der Waals: 0.00000            Coulomb: 0.00000            [K]
	Block[ 4] 0.00000            Van der Waals: 0.00000            Coulomb: 0.00000            [K]
	------------------------------------------------------------------------------
	Average   0.00000            Van der Waals: 0.000000           Coulomb: 0.00000            [K]
	      +/- 0.00000                       +/- 0.000000                +/- 0.00000            [K]

Average Adsorbate-Cation energy:
================================
	Block[ 0] 0.00000            Van der Waals: 0.00000            Coulomb: 0.00000            [K]
	Block[ 1] 0.00000            Van der Waals: 0.00000            Coulomb: 0.00000            [K]
	Block[ 2] 0.00000            Van der Waals: 0.00000            Coulomb: 0.00000            [K]
	Block[ 3] 0.00000            Van der Waals: 0.00000            Coulomb: 0.00000            [K]
	Block[ 4] 0.00000            Van der Waals: 0.00000            Coulomb: 0.00000            [K]
	------------------------------------------------------------------------------
	Average   0.00000            Van der Waals: 0.000000           Coulomb: 0.00000            [K]
	      +/- 0.00000                       +/- 0.000000                +/- 0.00000            [K]

Host polarization energy:
=======================
	Block[ 0]            0.00000 [K]
	Block[ 1]            0.00000 [K]
	Block[ 2]            0.00000 [K]
	Block[ 3]            0.00000 [K]
	Block[ 4]            0.00000 [K]
	------------------------------------------------------------------------------
	Average              0.00000 [K] +/-            0.00000 [K]

Adsorbate polarization energy:
=======================
	Block[ 0]            0.00000 [K]
	Block[ 1]            0.00000 [K]
	Block[ 2]            0.00000 [K]
	Block[ 3]            0.00000 [K]
	Block[ 4]            0.00000 [K]
	------------------------------------------------------------------------------
	Average              0.00000 [K] +/-            0.00000 [K]

Cation polarization energy:
=======================
	Block[ 0]            0.00000 [K]
	Block[ 1]            0.00000 [K]
	Block[ 2]            0.00000 [K]
	Block[ 3]            0.00000 [K]
	Block[ 4]            0.00000 [K]
	------------------------------------------------------------------------------
	Average              0.00000 [K] +/-            0.00000 [K]

Host back-polarization energy:
=======================
	Block[ 0]            0.00000 [K]
	Block[ 1]            0.00000 [K]
	Block[ 2]            0.00000 [K]
	Block[ 3]            0.00000 [K]
	Block[ 4]            0.00000 [K]
	------------------------------------------------------------------------------
	Average              0.00000 [K] +/-            0.00000 [K]

Adsorbate back-polarization energy:
=======================
	Block[ 0]            0.00000 [K]
	Block[ 1]            0.00000 [K]
	Block[ 2]            0.00000 [K]
	Block[ 3]            0.00000 [K]
	Block[ 4]            0.00000 [K]
	------------------------------------------------------------------------------
	Average              0.00000 [K] +/-            0.00000 [K]

Cation back-polarization energy:
=======================
	Block[ 0]            0.00000 [K]
	Block[ 1]            0.00000 [K]
	Block[ 2]            0.00000 [K]
	Block[ 3]            0.00000 [K]
	Block[ 4]            0.00000 [K]
	------------------------------------------------------------------------------
	Average              0.00000 [K] +/-            0.00000 [K]

Tail-correction energy:
=======================
	Block[ 0]            0.00000 [K]
	Block[ 1]            0.00000 [K]
	Block[ 2]            0.00000 [K]
	Block[ 3]            0.00000 [K]
	Block[ 4]            0.00000 [K]
	------------------------------------------------------------------------------
	Average              0.00000 [K] +/-            0.00000 [K]

Distance-constraints energy:
=======================
	Block[ 0]            0.00000 [K]
	Block[ 1]            0.00000 [K]
	Block[ 2]            0.00000 [K]
	Block[ 3]            0.00000 [K]
	Block[ 4]            0.00000 [K]
	------------------------------------------------------------------------------
	Average              0.00000 [K] +/-            0.00000 [K]

Angle-constraints energy:
=======================
	Block[ 0]            0.00000 [K]
	Block[ 1]            0.00000 [K]
	Block[ 2]            0.00000 [K]
	Block[ 3]            0.00000 [K]
	Block[ 4]            0.00000 [K]
	------------------------------------------------------------------------------
	Average              0.00000 [K] +/-            0.00000 [K]

Dihedral-constraints energy:
=======================
	Block[ 0]            0.00000 [K]
	Block[ 1]            0.00000 [K]
	Block[ 2]            0.00000 [K]
	Block[ 3]            0.00000 [K]
	Block[ 4]            0.00000 [K]
	------------------------------------------------------------------------------
	Average              0.00000 [K] +/-            0.00000 [K]

Inversion-bend constraints energy:
=======================
	Block[ 0]            0.00000 [K]
	Block[ 1]            0.00000 [K]
	Block[ 2]            0.00000 [K]
	Block[ 3]            0.00000 [K]
	Block[ 4]            0.00000 [K]
	------------------------------------------------------------------------------
	Average              0.00000 [K] +/-            0.00000 [K]

Out-of-plane-distance constraints energy:
=======================
	Block[ 0]            0.00000 [K]
	Block[ 1]            0.00000 [K]
	Block[ 2]            0.00000 [K]
	Block[ 3]            0.00000 [K]
	Block[ 4]            0.00000 [K]
	------------------------------------------------------------------------------
	Average              0.00000 [K] +/-            0.00000 [K]

Exclusion-constraints energy:
=======================
	Block[ 0]            0.00000 [K]
	Block[ 1]            0.00000 [K]
	Block[ 2]            0.00000 [K]
	Block[ 3]            0.00000 [K]
	Block[ 4]            0.00000 [K]
	------------------------------------------------------------------------------
	Average              0.00000 [K] +/-            0.00000 [K]

Total energy:
=============
	Block[ 0]            0.00000 [K]
	Block[ 1]            0.00000 [K]
	Block[ 2]            0.00000 [K]
	Block[ 3]            0.00000 [K]
	Block[ 4]            0.00000 [K]
	------------------------------------------------------------------------------
	Average              0.00000 [K] +/-            0.00000 [K]

Number of molecules:
====================

Component 0 [CO2]
-------------------------------------------------------------
	Block[ 0] 0.00000            [-]
	Block[ 1] 0.00000            [-]
	Block[ 2] 0.00000            [-]
	Block[ 3] 0.00000            [-]
	Block[ 4] 0.00000            [-]
	------------------------------------------------------------------------------
	Average loading absolute                              0.0000000000 +/-       0.0000000000 [-]
	Average loading absolute [molecules/unit cell]        0.0000000000 +/-       0.0000000000 [-]
	Average loading absolute [mol/kg framework]                  0.0000000000 +/-       0.0000000000 [-]
	Average loading absolute [milligram/gram framework]          0.0000000000 +/-       0.0000000000 [-]
	Average loading absolute [cm^3 (STP)/gr framework]           0.0000000000 +/-       0.0000000000 [-]
	Average loading absolute [cm^3 (STP)/cm^3 framework]         0.0000000000 +/-       0.0000000000 [-]

	Block[ 0] 0.00000            [-]
	Block[ 1] 0.00000            [-]
	Block[ 2] 0.00000            [-]
	Block[ 3] 0.00000            [-]
	Block[ 4] 0.00000            [-]
	------------------------------------------------------------------------------
	Average loading excess                              0.0000000000 +/-       0.0000000000 [-]
	Average loading excess [molecules/unit cell]        0.0000000000 +/-       0.0000000000 [-]
	Average loading excess [mol/kg framework]                    0.0000000000 +/-       0.0000000000 [-]
	Average loading excess [milligram/gram framework]            0.0000000000 +/-       0.0000000000 [-]
	Average loading excess [cm^3 (STP)/gr framework]             0.0000000000 +/-       0.0000000000 [-]
	Average loading excess [cm^3 (STP)/cm^3 framework]           0.0000000000 +/-       0.0000000000 [-]


Average Widom Rosenbluth factor:
================================
	Block[ 0] 112640 [-]
	Block[ 1] 80795.7 [-]
	Block[ 2] 70923.1 [-]
	Block[ 3] 95879.1 [-]
	Block[ 4] 116989 [-]
	------------------------------------------------------------------------------
	[CO2] Average Widom Rosenbluth-weight:   95445.3 +/- 24641.695526 [-]

Average Widom chemical potential:
=================================
	Block[ 0] -6973.94 [-]
	Block[ 1] -6866.62 [-]
	Block[ 2] -6824.52 [-]
	Block[ 3] -6921.9 [-]
	Block[ 4] -6986.18 [-]
	------------------------------------------------------------------------------
	[CO2] Average chemical potential:   -6914.63 +/- 85.819564 [K]

Average Widom Ideal-gas contribution:
=====================================
	Block[ 0] -3216.82 [-]
	Block[ 1] -3216.82 [-]
	Block[ 2] -3216.82 [-]
	Block[ 3] -3216.82 [-]
	Block[ 4] -3216.82 [-]
	------------------------------------------------------------------------------
	[CO2] Average Widom Ideal-gas chemical potential:   -3216.82 +/- 0.000000 [-]

Average Widom excess contribution:
==================================
	Block[ 0] -3757.12 [-]
	Block[ 1] -3649.8 [-]
	Block[ 2] -3607.7 [-]
	Block[ 3] -3705.09 [-]
	Block[ 4] -3769.36 [-]
	------------------------------------------------------------------------------
	[CO2] Average Widom excess chemical potential:   -3697.81 +/- 85.819564 [-]

Average Gibbs Widom Rosenbluth factor:
======================================
	Block[ 0] 0 [-]
	Block[ 1] 0 [-]
	Block[ 2] 0 [-]
	Block[ 3] 0 [-]
	Block[ 4] 0 [-]
	------------------------------------------------------------------------------
	[CO2] Average Gibbs Widom Rosenbluth-weight:   0 +/- 0.000000 [-]

Average Gibbs Widom chemical potential:
=======================================
	Block[ 0] 0 [-]
	Block[ 1] 0 [-]
	Block[ 2] 0 [-]
	Block[ 3] 0 [-]
	Block[ 4] 0 [-]
	------------------------------------------------------------------------------
	[CO2] Average Gibbs chemical potential:   0 +/- 0.000000 [K]

Average osmostat calibration for alchemical transformation:
=======================================
	Block[ 0] 0 [-]
	Block[ 1] 0 [-]
	Block[ 2] 0 [-]
	Block[ 3] 0 [-]
	Block[ 4] 0 [-]
	------------------------------------------------------------------------------
	Average osmostat calibration for alchemical transformation:   0 +/- 0.000000 [K]
	Average osmostat calibration for alchemical transformation:   0 +/- 0.000000 [kJ/mol]

Average Gibbs Widom Ideal-gas contribution:
===========================================
	Block[ 0] 0 [-]
	Block[ 1] 0 [-]
	Block[ 2] 0 [-]
	Block[ 3] 0 [-]
	Block[ 4] 0 [-]
	------------------------------------------------------------------------------
	[CO2] Average Gibbs Ideal-gas chemical potential:   0 +/- 0.000000 [-]

Average Gibbs Widom excess contribution:
===========================================
	Block[ 0] 0 [-]
	Block[ 1] 0 [-]
	Block[ 2] 0 [-]
	Block[ 3] 0 [-]
	Block[ 4] 0 [-]
	------------------------------------------------------------------------------
	[CO2] Average Gibbs excess chemical potential:   0 +/- 0.000000 [-]

Average Henry coefficient:
==========================
	Block[ 0] 0.0458648 [mol/kg/Pa]
	Block[ 1] 0.0328983 [mol/kg/Pa]
	Block[ 2] 0.0288784 [mol/kg/Pa]
	Block[ 3] 0.03904 [mol/kg/Pa]
	Block[ 4] 0.0476353 [mol/kg/Pa]
	------------------------------------------------------------------------------
	[CO2] Average Henry coefficient:  0.0388634 +/- 0.0100336 [mol/kg/Pa]

Average adsorption energy <U_gh>_1-<U_h>_0 obtained from Widom-insertion:
(Note: the total heat of adsorption is dH=<U_gh>_1-<U_h>_0 - <U_g> - RT)
=========================================================================
	Block[ 0] -6584.0484892566   [K]
	Block[ 1] -6234.5580219128   [K]
	Block[ 2] -6234.3982816256   [K]
	Block[ 3] -6361.7156607594   [K]
	Block[ 4] -6504.3063007301   [K]
	------------------------------------------------------------------------------
	[CO2] Average  <U_gh>_1-<U_h>_0:    -6383.8053508569 +/-     196.0011164181 [K]       (    -53.0779256394 +/-       1.6296444065 kJ/mol)

Simulation finished,  0 warnings


Sun May 17 22:00:10 2026
Simulation finished on Sunday, May 17.
The end time was 10:00 PM.

